LAMMPS (7 Feb 2024 - Update 1)
# PART B - MOLECULAR DYNAMICS

# 1) Initialization
units lj
dimension 3
atom_style molecular
bond_style harmonic
angle_style harmonic
pair_style lj/cut 2.5
boundary p p p

# 2) System definition
read_data ../energy-minimization/minimized_coordinate.data
Reading data file ...
  orthogonal box = (-20 -20 -20) to (20 20 20)
  1 by 1 by 1 MPI processor grid
  reading atoms ...
  1545 atoms
  reading velocities ...
  1545 velocities
  scanning bonds ...
  1 = max bonds/atom
  scanning angles ...
  1 = max angles/atom
  reading bonds ...
  40 bonds
  reading angles ...
  35 angles
Finding 1-2 1-3 1-4 neighbors ...
  special bond factors lj:    0        0        0       
  special bond factors coul:  0        0        0       
     2 = max # of 1-2 neighbors
     2 = max # of 1-3 neighbors
     4 = max # of 1-4 neighbors
     6 = max # of special neighbors
  special bonds CPU = 0.000 seconds
  read_data CPU = 0.005 seconds

# 3) Visualization
thermo 1000
dump dump_all_atoms_per_100_timestep all atom 1000 dump_all_atoms_per_100_timestep.md.lammpstrj

# 4) Run
fix fix_nve_ensemble all nve
fix fix_langevin_thermostat all langevin 1 1 0.1 94728

run 500000
Generated 0 of 1 mixed pair_coeff terms from geometric mixing rule
WARNING: Communication cutoff 2.8 is shorter than a bond length based estimate of 4.05. This may lead to errors. (../comm.cpp:723)
Neighbor list info ...
  update: every = 1 steps, delay = 0 steps, check = yes
  max neighbors/atom: 2000, page size: 100000
  master list distance cutoff = 2.8
  ghost atom cutoff = 2.8
  binsize = 1.4, bins = 29 29 29
  1 neighbor lists, perpetual/occasional/extra = 1 0 0
  (1) pair lj/cut, perpetual
      attributes: half, newton on
      pair build: half/bin/newton
      stencil: half/bin/3d
      bin: standard
WARNING: Communication cutoff 2.8 is shorter than a bond length based estimate of 4.05. This may lead to errors. (../comm.cpp:723)
Per MPI rank memory allocation (min/avg/max) = 6.74 | 6.74 | 6.74 Mbytes
   Step          Temp          E_pair         E_mol          TotEng         Press     
         0   0             -0.9900584      0.00026786123 -0.98979054    -0.00018688054
      1000   1.0205211     -0.27427961     0.036574989    1.2920863      0.02211524   
      2000   0.98917395    -0.23159612     0.12021901     1.3714234      0.017925813  
      3000   1.0041594     -0.22145108     0.032828826    1.316642       0.021256144  
      4000   1.0020805     -0.21054274     0.03808759     1.3296927      0.02089244   
      5000   0.98342854    -0.20589918     0.027944991    1.2962338      0.021611657  
      6000   1.0491939     -0.20998629     0.10192878     1.4647147      0.020023095  
      7000   1.0057351     -0.21129491     0.052526727    1.348858       0.021292506  
      8000   0.98019036    -0.22114947     0.034825539    1.28301        0.019548476  
      9000   0.98688466    -0.22639219     0.031721803    1.2846985      0.019610966  
     10000   0.96832652    -0.2187637      0.021972815    1.2547588      0.020435386  
     11000   0.98327937    -0.22245811     0.026441667    1.277948       0.02072666   
     12000   1.013286      -0.19612604     0.039275334    1.3620945      0.020983813  
     13000   1.0111457     -0.21431165     0.031308887    1.3327342      0.020357111  
     14000   1.0366885     -0.19794689     0.037004225    1.3930836      0.022741263  
     15000   1.0349265     -0.2014264      0.035947816    1.3859064      0.023098878  
     16000   0.99519588    -0.21575791     0.033442028    1.3095117      0.020275319  
     17000   1.0030684     -0.22389383     0.036104059    1.3158389      0.021621084  
     18000   0.97667419    -0.21138505     0.037453854    1.2901319      0.020626657  
     19000   0.96597846    -0.21563621     0.030778124    1.2631718      0.021239531  
     20000   0.99493893    -0.20993595     0.026384565    1.307891       0.020892311  
     21000   0.99423711    -0.21002855     0.033789102    1.3141509      0.020391905  
     22000   0.96544287    -0.21497783     0.031043123    1.2632923      0.020853257  
     23000   1.0080657     -0.21714949     0.032507528    1.3264779      0.021624578  
     24000   1.0068955     -0.20008557     0.035274885    1.3445549      0.02175656   
     25000   1.0181364     -0.21187432     0.038122287    1.3524641      0.02134787   
     26000   1.0310037     -0.20809904     0.036863097    1.3742687      0.020950134  
     27000   0.96141583    -0.20656959     0.038035789    1.2726565      0.020122129  
     28000   1.0003049     -0.21802268     0.032878895    1.3143424      0.021100213  
     29000   0.99925996    -0.19789989     0.032532452    1.3325523      0.022078413  
     30000   1.0129699     -0.20568526     0.035875602    1.3486617      0.021096864  
     31000   0.98741232    -0.20192264     0.029332114    1.3075693      0.020678634  
     32000   1.0220172     -0.21816273     0.041193976    1.3550648      0.020906425  
     33000   0.98200256    -0.20949775     0.033318672    1.2958714      0.020941269  
     34000   0.98023354    -0.20902198     0.032054197    1.2924308      0.020909555  
     35000   1.0191849     -0.20357932     0.030800189    1.3550088      0.021993627  
     36000   0.97359783    -0.201401       0.037640181    1.2956907      0.020845253  
     37000   1.0043099     -0.20772649     0.038782942    1.3365463      0.021368192  
     38000   0.97594004    -0.20947099     0.030741525    1.2842331      0.021708265  
     39000   0.98923035    -0.2021604      0.0302532      1.3109779      0.023065521  
     40000   1.0126149     -0.21557959     0.034545594    1.3369052      0.021822228  
     41000   1.0119117     -0.21047131     0.023659958    1.3300737      0.02078342   
     42000   1.039564      -0.21371012     0.0235771      1.3682037      0.022798739  
     43000   1.0175843     -0.21101719     0.031223946    1.3455953      0.021076715  
     44000   0.97477509    -0.22532439     0.031727643    1.2676195      0.020804723  
     45000   0.95993962    -0.20947607     0.026347597    1.255849       0.019361816  
     46000   1.0391252     -0.21456581     0.027921831    1.3710349      0.022576124  
     47000   0.97356254    -0.22042708     0.032575158    1.2715467      0.019805209  
     48000   0.99263986    -0.2006896      0.03457819     1.3218847      0.019758279  
     49000   1.0023207     -0.22651639     0.03638038     1.3123719      0.021676631  
     50000   0.96567408    -0.21575485     0.03554034     1.2673591      0.020692811  
     51000   1.0212092     -0.20981473     0.025899303    1.346907       0.022705971  
     52000   1.0092857     -0.20981868     0.035416401    1.3385464      0.022090787  
     53000   1.0221057     -0.22010168     0.038029996    1.3500945      0.021372524  
     54000   0.99124046    -0.21870254     0.040707389    1.3079032      0.020482787  
     55000   1.0146849     -0.21433099     0.030128646    1.3368398      0.022039687  
     56000   1.010926      -0.20644278     0.035062646    1.3440273      0.021938996  
     57000   0.99923009    -0.21366529     0.044791474    1.3290012      0.021284044  
     58000   1.0100014     -0.21422577     0.039012141    1.3388078      0.022203225  
     59000   0.96793637    -0.20299594     0.035496744    1.2834656      0.021133246  
     60000   0.99474336    -0.21818864     0.034142784    1.3071034      0.021131639  
     61000   0.9697879     -0.22326059     0.044031112    1.2745108      0.022252889  
     62000   1.0007718     -0.22205864     0.045295941    1.3234233      0.021141014  
     63000   1.0023895     -0.20801193     0.037830697    1.3324299      0.021553489  
     64000   1.0154101     -0.20039288     0.039817787    1.3615542      0.022314211  
     65000   0.96928816    -0.19155437     0.032093044    1.2935299      0.022535509  
     66000   1.0101028     -0.21782066     0.036227926    1.3325808      0.020715662  
     67000   1.022357      -0.21999553     0.037049319    1.3495967      0.0208977    
     68000   1.0067295     -0.22369889     0.031454507    1.3168725      0.021041885  
     69000   0.98147082    -0.21088713     0.045729672    1.3060959      0.021260075  
     70000   1.0093262     -0.21188416     0.030157915    1.3312831      0.022225446  
     71000   0.99004344    -0.20941782     0.032903862    1.30759        0.020086171  
     72000   1.0184168     -0.21646031     0.031592737    1.3417689      0.020343829  
     73000   1.0152473     -0.23414623     0.030023645    1.3177627      0.021464549  
     74000   1.0024763     -0.1959009      0.035040136    1.3418805      0.020510968  
     75000   0.99265405    -0.21309025     0.026609985    1.3015371      0.020999836  
     76000   0.99216329    -0.21577721     0.14020489     1.4117093      0.018028533  
     77000   0.9928526     -0.19914508     0.046014104    1.335184       0.021817445  
     78000   1.0179168     -0.21021404     0.037019066    1.3526919      0.021758532  
     79000   0.99694518    -0.22226572     0.037975129    1.3101593      0.020897864  
     80000   1.0129763     -0.21393476     0.033272146    1.3378184      0.021600347  
     81000   1.0051529     -0.21682994     0.031355977    1.3212795      0.020739947  
     82000   1.010547      -0.20663783     0.033072753    1.3412743      0.02112856   
     83000   1.0311732     -0.20923185     0.028444876    1.3649717      0.022373626  
     84000   1.0122733     -0.22084027     0.036109306    1.3326961      0.02143943   
     85000   0.99146215    -0.20852429     0.03764552     1.3153519      0.020459489  
     86000   0.96510111    -0.19762913     0.030539587    1.2796251      0.020046938  
     87000   0.99556758    -0.21439506     0.030180364    1.3081701      0.020298991  
     88000   1.0053125     -0.21424283     0.033785163    1.3265351      0.021142736  
     89000   0.99075777    -0.20370411     0.033431951    1.3149026      0.020753786  
     90000   1.0191257     -0.21278221     0.033783422    1.3487003      0.021664195  
     91000   0.99675263    -0.20131203     0.033049944    1.3258991      0.021680613  
     92000   0.99609565    -0.21413595     0.027005823    1.3060463      0.022024009  
     93000   0.96768421    -0.20551359     0.033552821    1.278626       0.020405118  
     94000   1.0155521     -0.21903917     0.036491115    1.3397942      0.021239435  
     95000   0.99124385    -0.22042557     0.040603141    1.306081       0.020794553  
     96000   0.99830545    -0.22687725     0.032019424    1.3016311      0.022257897  
     97000   0.99339635    -0.21258812     0.029226277    1.3057682      0.021920867  
     98000   0.97021695    -0.21615706     0.029521723    1.2677481      0.019679332  
     99000   1.0105534     -0.21948168     0.032839298    1.3282066      0.02132396   
    100000   1.0039468     -0.21349484     0.032139358    1.3235899      0.022131757  
    101000   0.97496397    -0.19765097     0.034391384    1.2982398      0.022013469  
    102000   1.0180357     -0.22122977     0.028523129    1.3333586      0.021555934  
    103000   0.98363711    -0.21968941     0.030027928    1.2848392      0.020903693  
    104000   0.99229401    -0.22169327     0.025422313    1.2912067      0.022826228  
    105000   0.96803799    -0.21747542     0.028383387    1.2620251      0.02122968   
    106000   1.0001553     -0.20894612     0.028294862    1.3186107      0.021233145  
    107000   1.0051951     -0.20870328     0.032830097    1.3309436      0.02140811   
    108000   0.98431867    -0.22246892     0.035565298    1.2886187      0.021111258  
    109000   1.0401788     -0.22173617     0.034990699    1.3725129      0.022596295  
    110000   0.98321579    -0.21130494     0.036622531    1.2991867      0.0220277    
    111000   1.0196447     -0.21753187     0.032305974    1.3432512      0.021342886  
    112000   0.97095601    -0.22235889     0.039847065    1.2729795      0.020173145  
    113000   0.96927526    -0.22240937     0.032035375    1.2625979      0.02076398   
    114000   1.0095378     -0.21401118     0.027637355    1.3269528      0.023525941  
    115000   1.0181615     -0.19826613     0.041674805    1.3696625      0.021700261  
    116000   1.0330764     -0.2188454      0.038446354    1.3682126      0.021046563  
    117000   0.99838663    -0.20433951     0.029476639    1.3217478      0.022478337  
    118000   1.0068987     -0.22068433     0.033540586    1.3222268      0.020562845  
    119000   1.0189301     -0.22134356     0.028516312    1.3345786      0.021558865  
    120000   0.94940012    -0.21516064     0.03649972     1.2445175      0.020786647  
    121000   1.0026051     -0.22298597     0.045466129    1.3254144      0.019840887  
    122000   0.99275636    -0.2248801      0.043082232    1.3063728      0.020584655  
    123000   1.0088087     -0.19903781     0.031150806    1.3443467      0.020935524  
    124000   1.019776      -0.20354149     0.037652989    1.3627854      0.021064601  
    125000   1.0419179     -0.21016242     0.02624319     1.377946       0.023478884  
    126000   0.97712144    -0.20156969     0.041921785    1.3050856      0.020217746  
    127000   0.99478893    -0.21619519     0.039060467    1.3140829      0.021165783  
    128000   1.012523      -0.21621513     0.026589517    1.3281759      0.023257713  
    129000   1.0070472     -0.23021105     0.035724189    1.3151063      0.020718926  
    130000   0.9855493     -0.2288742      0.035874307    1.2843672      0.022326007  
    131000   1.0090894     -0.21144992     0.033411417    1.334616       0.021334905  
    132000   0.97440644    -0.21535982     0.039586125    1.2848899      0.020006132  
    133000   0.97402062    -0.22844929     0.035467343    1.2671033      0.019743345  
    134000   1.0030289     -0.20259859     0.034104728    1.3350757      0.021498638  
    135000   0.97489997    -0.20543758     0.031932663    1.2878985      0.020401932  
    136000   0.98810966    -0.19946164     0.035777071    1.3175206      0.021150442  
    137000   1.0020723     -0.20133478     0.037823201    1.338624       0.021175625  
    138000   1.0011683     -0.20445586     0.030725624    1.3270503      0.023130807  
    139000   1.0236271     -0.22601306     0.031600679    1.3400344      0.021974944  
    140000   1.0193581     -0.21986863     0.031479015    1.3396579      0.021592738  
    141000   0.98435743    -0.21111845     0.030906777    1.2953688      0.021129689  
    142000   0.99901404    -0.21731736     0.02963194     1.3098657      0.020706601  
    143000   1.0059228     -0.20738487     0.032697131    1.3332199      0.020224978  
    144000   0.96954829    -0.20049123     0.028650469    1.2815404      0.021397533  
    145000   0.98429037    -0.19616249     0.034567652    1.3138851      0.020247911  
    146000   0.98397431    -0.20394251     0.031226107    1.3022898      0.021406487  
    147000   0.98799696    -0.19815419     0.034055519    1.3169376      0.02086625   
    148000   1.0032377     -0.20908984     0.041611282    1.336404       0.020588908  
    149000   0.98350443    -0.22519605     0.038540066    1.2876458      0.020764264  
    150000   1.0286477     -0.20099441     0.028106819    1.3690853      0.022475155  
    151000   0.98522604    -0.20326194     0.041887175    1.3155078      0.020732184  
    152000   0.99253181    -0.21774234     0.057091253    1.327183       0.019645132  
    153000   1.0106618     -0.2184005      0.032312376    1.3289234      0.021721804  
    154000   1.0004666     -0.21856661     0.030543126    1.3117051      0.020590643  
    155000   0.97809516    -0.21581732     0.032510551    1.2828864      0.02121632   
    156000   0.99613393    -0.20568464     0.20523969     1.4927888      0.017450371  
    157000   0.99127268    -0.21388814     0.044468611    1.3165271      0.020940763  
    158000   1.0268581     -0.19815757     0.033072357    1.374205       0.022204011  
    159000   1.0094961     -0.19371511     0.040012399    1.3595614      0.023824805  
    160000   0.99482179    -0.21202985     0.036198685    1.3154357      0.021291252  
    161000   0.99299785    -0.22303387     0.031162946    1.2966618      0.023825723  
    162000   1.0116402     -0.23257992     0.029349468    1.3132477      0.020683557  
    163000   0.96436216    -0.22309655     0.025985801    1.2484962      0.021765195  
    164000   1.0095779     -0.21682967     0.031794925    1.328352       0.021148845  
    165000   0.98915307    -0.21686453     0.030009713    1.2959144      0.022586215  
    166000   1.00779       -0.2088616      0.033085409    1.3349304      0.021353955  
    167000   1.010052      -0.2125057      0.038310126    1.3399018      0.021784164  
    168000   0.99095603    -0.19987501     0.032834923    1.3184319      0.021439614  
    169000   1.0122966     -0.20581877     0.031474583    1.3431178      0.021572369  
    170000   1.0214965     -0.19681744     0.036073825    1.3705094      0.022616309  
    171000   0.99894497    -0.21558778     0.036991139    1.318851       0.021962506  
    172000   0.98039944    -0.21102241     0.036435211    1.2950601      0.02163462   
    173000   0.99652896    -0.21641485     0.036132313    1.3135434      0.01997971   
    174000   0.99492751    -0.21399683     0.039364472    1.316793       0.02134796   
    175000   0.98377059    -0.21682864     0.038202455    1.2960746      0.020380803  
    176000   1.0065067     -0.21036417     0.037378141    1.3357968      0.019901047  
    177000   0.97391686    -0.20308283     0.035867217    1.2927141      0.020769504  
    178000   1.0054714     -0.20620191     0.045021879    1.3460509      0.020516039  
    179000   0.98207751    -0.20572808     0.042822271    1.309257       0.020791876  
    180000   1.0085485     -0.21907122     0.034361518    1.3271338      0.022931359  
    181000   0.98774246    -0.21496257     0.032560708    1.2982528      0.020872232  
    182000   0.98695327    -0.20061639     0.031952716    1.310808       0.020814103  
    183000   0.9960846     -0.21427352     0.033211746    1.312098       0.021119325  
    184000   1.0116972     -0.22060949     0.034501869    1.330456       0.02218514   
    185000   0.97470143    -0.20362514     0.026302381    1.2837831      0.021759686  
    186000   1.0014631     -0.21392713     0.041251516    1.3285468      0.020334028  
    187000   1.0138007     -0.21443673     0.03277711     1.3380571      0.021616483  
    188000   1.0221676     -0.22557067     0.036260445    1.3429488      0.022144307  
    189000   1.0178082     -0.22484972     0.03955574     1.3404301      0.022145872  
    190000   0.99017215    -0.21887923     0.030634849    1.2960525      0.020462018  
    191000   1.002612      -0.22780637     0.031595658    1.3067338      0.020728373  
    192000   1.0152031     -0.222294       0.029575748    1.3291007      0.021460874  
    193000   1.0153858     -0.21816553     0.036770928    1.3406982      0.021964201  
    194000   0.96207085    -0.19656651     0.037289564    1.2828953      0.020258478  
    195000   1.002548      -0.20933786     0.033633051    1.3271439      0.021879243  
    196000   0.97108857    -0.22457106     0.036627386    1.2677464      0.020148895  
    197000   0.98115532    -0.21538651     0.03659173     1.2919856      0.020646501  
    198000   1.0113087     -0.21405732     0.02881043     1.3307343      0.021436913  
    199000   1.0061503     -0.21027414     0.026944123    1.3249186      0.023057879  
    200000   1.0047686     -0.21149657     0.036017879    1.3306988      0.022876419  
    201000   0.9958748     -0.21768438     0.037461352    1.3126223      0.021057933  
    202000   1.0156803     -0.20866354     0.035417941    1.3492888      0.021855007  
    203000   0.99373572    -0.20193444     0.035532152    1.3232365      0.020807485  
    204000   1.01663       -0.19243934     0.038567457    1.370086       0.021566955  
    205000   0.99653089    -0.20668518     0.032030402    1.3191741      0.021759463  
    206000   1.0032854     -0.21669567     0.035130558    1.322389       0.021253737  
    207000   0.95473983    -0.23116623     0.029251566    1.2292681      0.021382548  
    208000   0.99525923    -0.23126362     0.037677681    1.2983366      0.019926338  
    209000   1.0208672     -0.21443275     0.041279381    1.3571564      0.020916398  
    210000   0.98839596    -0.21298296     0.035107958    1.3037593      0.021705958  
    211000   0.99318502    -0.20854886     0.025186127    1.3054505      0.021326143  
    212000   0.96373547    -0.21245832     0.032325685    1.2645349      0.020233524  
    213000   0.96000546    -0.20501818     0.03479556     1.2688535      0.020660503  
    214000   0.95059162    -0.20432004     0.033594526    1.254239       0.020394435  
    215000   1.0143933     -0.21096195     0.028247289    1.3378904      0.021706514  
    216000   1.0107137     -0.23171397     0.034007355    1.3173826      0.021080767  
    217000   0.99782126    -0.22639558     0.030331727    1.2996993      0.021579828  
    218000   1.0242693     -0.22502251     0.031819222    1.3422062      0.022526298  
    219000   1.0088642     -0.22941473     0.03911705     1.3220191      0.020894821  
    220000   1.0222287     -0.22225465     0.030743056    1.3408391      0.021717275  
    221000   0.98974449    -0.22181403     0.036193843    1.2980356      0.020728557  
    222000   0.96921515    -0.20901422     0.043867751    1.2877353      0.020463748  
    223000   0.96358941    -0.21431939     0.036112228    1.2662414      0.02057425   
    224000   1.044226      -0.21679304     0.03394295     1.3824752      0.022972664  
    225000   0.98336248    -0.22121696     0.030592999    1.283465       0.020720691  
    226000   1.0408906     -0.22679661     0.035758759    1.3692875      0.02207195   
    227000   1.0076851     -0.20837272     0.033985178    1.3361617      0.021805861  
    228000   0.97966647    -0.20176133     0.035030809    1.301818       0.019707931  
    229000   1.0053675     -0.21391315     0.042174894    1.3353369      0.021044322  
    230000   0.99174208    -0.20529098     0.037428466    1.3187878      0.021107292  
    231000   1.0137502     -0.22219141     0.035523169    1.3329729      0.020555568  
    232000   0.99672559    -0.20294529     0.034694799    1.3258702      0.021754776  
    233000   1.0087967     -0.22358908     0.039718141    1.3283447      0.021467795  
    234000   1.0502189     -0.20955221     0.031455474    1.3962119      0.023147133  
    235000   1.0227583     -0.22171716     0.029188939    1.3406163      0.022714536  
    236000   1.0281202     -0.20220283     0.034345165    1.3733245      0.023433009  
    237000   1.0174463     -0.20841334     0.030245529    1.3470138      0.022549005  
    238000   1.0501519     -0.21506835     0.033925629    1.3930656      0.023496723  
    239000   0.99115249    -0.20463396     0.037913806    1.3190463      0.020682211  
    240000   1.0216719     -0.21196714     0.035076849    1.3546256      0.021306207  
    241000   1.0086965     -0.21413159     0.03256427     1.3304981      0.020645583  
    242000   0.98360364    -0.23063163     0.042243036    1.2860619      0.020257884  
    243000   0.96855044    -0.20722535     0.043104001    1.287764       0.021197244  
    244000   1.0028888     -0.21321143     0.037857115    1.3280051      0.021073614  
    245000   0.98453512    -0.21886797     0.032916561    1.2898954      0.020385303  
    246000   0.98225972    -0.22266457     0.03200209     1.2817735      0.020429013  
    247000   1.0211836     -0.2363375      0.038165949    1.3326124      0.021242685  
    248000   1.0192681     -0.21037977     0.032046277    1.349579       0.022069399  
    249000   0.98763911    -0.21742235     0.027453939    1.2905314      0.020875615  
    250000   0.9698759     -0.216195       0.028925982    1.2666032      0.021483506  
    251000   0.99284769    -0.20025112     0.037733348    1.3257898      0.021751838  
    252000   0.97771251    -0.21717982     0.031638833    1.2800786      0.022115294  
    253000   0.98542937    -0.19575765     0.037194991    1.3186247      0.02135669   
    254000   1.005138      -0.19851676     0.036314834    1.3445291      0.021075845  
    255000   1.0106792     -0.20265617     0.034497197    1.3468785      0.023053776  
    256000   0.99573325    -0.20977536     0.038646186    1.321504       0.021947276  
    257000   0.95498766    -0.20582247     0.034055681    1.2597875      0.020432237  
    258000   1.0117009     -0.19531073     0.033258676    1.3545171      0.022765982  
    259000   1.0087806     -0.2074641      0.036524557    1.3412519      0.020143692  
    260000   0.99980799    -0.22352882     0.032440581    1.307653       0.021404651  
    261000   0.99016547    -0.19620074     0.035859584    1.3239457      0.02117051   
    262000   1.0124172     -0.19103591     0.035340302    1.3619473      0.022262962  
    263000   0.98854267    -0.18784008     0.028227738    1.3222419      0.022406854  
    264000   0.97849549    -0.20878489     0.035813155    1.2938215      0.020765797  
    265000   0.98758389    -0.21622535     0.026994571    1.2911862      0.020705315  
    266000   1.0084773     -0.2105255      0.029205028    1.3304164      0.022115773  
    267000   0.99360821    -0.21824717     0.032185237    1.3033857      0.020857142  
    268000   0.98945892    -0.21321431     0.20882462     1.4788381      0.017166138  
    269000   1.023966      -0.22473662     0.066207493    1.3764257      0.021487757  
    270000   1.0025477     -0.2206487      0.047400761    1.3296003      0.020697019  
    271000   0.98180592    -0.20759717     0.044230561    1.3083891      0.021475422  
    272000   1.0191814     -0.21122549     0.033312152    1.3498693      0.021090781  
    273000   1.0143656     -0.20528092     0.032806915    1.3480896      0.022855516  
    274000   0.97426837    -0.22065458     0.031118658    1.2709207      0.02031689   
    275000   1.0191386     -0.21846545     0.032236169    1.3414892      0.020668492  
    276000   1.0236617     -0.22236894     0.034322819    1.3464526      0.021059611  
    277000   0.98076447    -0.21945054     0.034686057    1.28543        0.020503291  
    278000   1.0501465     -0.20739697     0.029385465    1.3961887      0.022750481  
    279000   1.0396866     -0.20803754     0.031683894    1.3821669      0.022930175  
    280000   1.0320745     -0.20151769     0.034647503    1.3802395      0.022354898  
    281000   0.98838582    -0.19558997     0.033425274    1.3194544      0.020949004  
    282000   1.0044181     -0.21936547     0.02802154     1.314308       0.020789442  
    283000   0.96224615    -0.22390778     0.026601564    1.2451288      0.019787205  
    284000   0.98923651    -0.2142824      0.031987443    1.3005994      0.020086375  
    285000   1.0379732     -0.21940946     0.032391746    1.3689343      0.022531007  
    286000   1.0284121     -0.20587477     0.03183058     1.3675755      0.023409246  
    287000   1.0284778     -0.2186051      0.026234575    1.3493477      0.021072409  
    288000   0.98206506    -0.21664892     0.026188107    1.2816833      0.020396957  
    289000   0.99578561    -0.20506315     0.030782157    1.3184306      0.022007001  
    290000   0.97226153    -0.20305574     0.036511024    1.2909036      0.021137447  
    291000   0.98510215    -0.2010651      0.030052094    1.3056838      0.021323272  
    292000   0.98745202    -0.21883972     0.028239529    1.2896191      0.019961879  
    293000   1.0358979     -0.21275072     0.025219367    1.3653098      0.021760325  
    294000   0.98868304    -0.22456278     0.034618238    1.2921201      0.020512535  
    295000   1.0014757     -0.21834901     0.029016334    1.3119086      0.021080731  
    296000   0.96262398    -0.21825532     0.031053085    1.2557991      0.020518378  
    297000   0.97972201    -0.21867062     0.040731055    1.2906923      0.020164182  
    298000   1.0139406     -0.21635896     0.02970804     1.3332755      0.02125125   
    299000   1.0128448     -0.22167438     0.025025328    1.3216348      0.020836149  
    300000   1.023123      -0.21774156     0.039467209    1.3554168      0.021925494  
    301000   1.0309        -0.20568334     0.039283924    1.3789498      0.021820607  
    302000   1.0194707     -0.21417827     0.03373288     1.3477709      0.021782576  
    303000   1.0093456     -0.19040249     0.027779982    1.3504159      0.021495682  
    304000   0.98946129    -0.21486426     0.029856292    1.2982233      0.020810556  
    305000   0.99244858    -0.21579641     0.039094676    1.3110076      0.021729041  
    306000   0.97453209    -0.21548165     0.043154699    1.288525       0.019972884  
    307000   0.98990926    -0.21088588     0.02685716     1.2998741      0.02093316   
    308000   1.0046382     -0.1783028      0.032442568    1.3601216      0.022302097  
    309000   1.0070471     -0.19212117     0.026167688    1.3436395      0.022384457  
    310000   1.0236731     -0.22484191     0.028227082    1.337901       0.021630014  
    311000   0.99099149    -0.20722364     0.034323572    1.312625       0.022855391  
    312000   1.006124      -0.19869581     0.028165599    1.3376789      0.022428632  
    313000   1.0245944     -0.22236248     0.033381354    1.3469158      0.022165942  
    314000   0.97771147    -0.23415043     0.031067816    1.2625354      0.020384979  
    315000   1.0042934     -0.22735041     0.034124795    1.3122394      0.021782659  
    316000   0.98607949    -0.19787722     0.028333312    1.308618       0.021837258  
    317000   1.025472      -0.22631945     0.029462622    1.3403556      0.021427466  
    318000   1.0027314     -0.22425192     0.031608204    1.3104799      0.02156699   
    319000   1.0357527     -0.21515767     0.03504216     1.372508       0.023363078  
    320000   1.0084275     -0.22617397     0.027378815    1.312867       0.022776181  
    321000   1.0062038     -0.22135394     0.03702879     1.3240036      0.020936558  
    322000   0.96701473    -0.2177903      0.031841894    1.2636348      0.020149753  
    323000   0.96300545    -0.23285384     0.032455835    1.2431752      0.019766653  
    324000   1.0015661     -0.22220317     0.03471675     1.3138903      0.020696275  
    325000   0.96809689    -0.21360525     0.031613228    1.2692134      0.021642182  
    326000   1.0253541     -0.23346706     0.02848264     1.3320513      0.0221636    
    327000   0.9958709     -0.21113865     0.032996665    1.3146975      0.021154991  
    328000   1.0192439     -0.2269226      0.029762627    1.3307164      0.022303278  
    329000   0.98562141    -0.22542985     0.033665302    1.2857107      0.019892084  
    330000   1.0311421     -0.2077604      0.03013639     1.368088       0.021588399  
    331000   0.99378097    -0.21305353     0.038830749    1.3154838      0.019989786  
    332000   1.0216243     -0.2141934      0.036158809    1.35341        0.021226265  
    333000   1.0438157     -0.21839998     0.033507852    1.379818       0.022364021  
    334000   1.0047537     -0.22969419     0.031154928    1.3076158      0.020772222  
    335000   0.99828318    -0.2177411      0.030242461    1.3089569      0.023100857  
    336000   1.0127766     -0.20436329     0.029577396    1.3433957      0.021682917  
    337000   0.9805657     -0.20302522     0.037222846    1.3040942      0.019497845  
    338000   1.0145523     -0.20063979     0.03538382     1.3555875      0.021277019  
    339000   0.99775225    -0.20361206     0.029353263    1.3214009      0.0220443    
    340000   0.98910493    -0.20552331     0.03290248     1.3100763      0.020879756  
    341000   0.98783865    -0.20929358     0.030904267    1.3024096      0.020718371  
    342000   1.001943      -0.21064923     0.03593475     1.3272273      0.022182091  
    343000   0.97909389    -0.21308865     0.035042281    1.2896439      0.021143614  
    344000   0.99284647    -0.2184073      0.04187805     1.3117765      0.021534424  
    345000   0.99225296    -0.19557224     0.04023761     1.3320815      0.022860433  
    346000   0.99623727    -0.21028136     0.044551637    1.327659       0.019211681  
    347000   1.0120305     -0.21087068     0.03385806     1.3400506      0.02130211   
    348000   0.97464201    -0.21043862     0.03722686     1.287805       0.02030473   
    349000   1.0204839     -0.2040054      0.032023963    1.3577537      0.022062222  
    350000   1.0168331     -0.20727197     0.026266271    1.3432567      0.021731926  
    351000   0.99875244    -0.21245002     0.039250775    1.3239598      0.020828872  
    352000   1.0023724     -0.21945015     0.03537854     1.3185138      0.020545159  
    353000   1.0049966     -0.21070548     0.041578029    1.3373917      0.021389474  
    354000   1.023517      -0.22985413     0.033526243    1.3379538      0.020862865  
    355000   1.0192919     -0.22826607     0.03284886     1.332531       0.021164117  
    356000   1.0254471     -0.220786       0.035239622    1.3516287      0.022038873  
    357000   1.0346254     -0.22516692     0.028423503    1.3541901      0.023269607  
    358000   0.97640435    -0.22193917     0.03891803     1.2806374      0.020392267  
    359000   0.9904294     -0.22754098     0.037245423    1.294387       0.021285232  
    360000   0.98192096    -0.20928051     0.028532993    1.2911806      0.021982688  
    361000   1.0224159     -0.22084324     0.036887791    1.3486757      0.021507085  
    362000   1.0325103     -0.22034138     0.029004773    1.3564264      0.021456805  
    363000   0.98010385    -0.21048926     0.044587784    1.3033027      0.020137067  
    364000   0.98268698    -0.22607458     0.035691512    1.2826933      0.021732648  
    365000   0.96062683    -0.20864634     0.038882412    1.2702437      0.020026205  
    366000   0.99209371    -0.19838269     0.030746815    1.3195415      0.021755472  
    367000   0.98173231    -0.2189233      0.039514466    1.2922365      0.020300854  
    368000   1.0393875     -0.20265307     0.038605576    1.3940247      0.022921948  
    369000   1.0328854     -0.22033899     0.18147401     1.5094603      0.01789324   
    370000   1.0076323     -0.2376891      0.078043858    1.3508249      0.019773486  
    371000   0.97755209    -0.22143366     0.044668376    1.2886138      0.019956909  
    372000   1.0159557     -0.21023177     0.032693165    1.3454086      0.02126826   
    373000   1.0085069     -0.21274453     0.043365107    1.3424018      0.021204721  
    374000   0.97802825    -0.20924563     0.043341725    1.3001889      0.020790352  
    375000   0.98088891    -0.21000349     0.029162027    1.2895396      0.020902242  
    376000   1.0174688     -0.21724608     0.031119549    1.3390889      0.022152706  
    377000   1.0254087     -0.20559176     0.031122785    1.3626486      0.021230883  
    378000   1.0257177     -0.1935437      0.026596054    1.370633       0.022330901  
    379000   0.99128166    -0.19014314     0.025833284    1.3216502      0.022762956  
    380000   0.99514959    -0.23002662     0.034649951    1.2963815      0.019790967  
    381000   0.97347777    -0.21679605     0.027103661    1.2695791      0.020507346  
    382000   0.99773935    -0.20983548     0.034408287    1.3202131      0.02078834   
    383000   1.0294287     -0.22398636     0.038834743    1.357992       0.021308517  
    384000   1.0241561     -0.20907293     0.03043648     1.3566033      0.022379616  
    385000   1.0318284     -0.19578599     0.043047908    1.3940028      0.021066646  
    386000   0.99424425    -0.20795086     0.033729298    1.3161795      0.021248738  
    387000   1.0023358     -0.22791143     0.033191846    1.307811       0.020908388  
    388000   1.0139067     -0.20642514     0.037253688    1.3507042      0.02379969   
    389000   1.0293778     -0.20429861     0.026993069    1.3657618      0.022051264  
    390000   1.0105136     -0.20917599     0.064388147    1.3700014      0.019419036  
    391000   1.0428992     -0.21044611     0.03629712     1.3891872      0.023590798  
    392000   0.99078177    -0.20848946     0.036716707    1.313438       0.021683771  
    393000   1.0273026     -0.2061229      0.035356774    1.3691903      0.021844441  
    394000   0.99659367    -0.22772675     0.033982106    1.3001783      0.020354232  
    395000   0.99817623    -0.19457886     0.029863006    1.3315794      0.021361323  
    396000   0.97131439    -0.20316467     0.033946688    1.2868106      0.020262191  
    397000   1.0021583     -0.21485482     0.036659732    1.3240693      0.020840558  
    398000   0.99340882    -0.21164785     0.037371775    1.3148727      0.021280918  
    399000   0.96032231    -0.20988842     0.028769755    1.2584325      0.01974011   
    400000   1.0036102     -0.2124072      0.03850241     1.3305361      0.021738582  
    401000   1.0306533     -0.21728853     0.035642051    1.3633329      0.022585374  
    402000   1.0224072     -0.2055073      0.040797946    1.3679088      0.021659751  
    403000   1.0020745     -0.21000638     0.037997546    1.3301301      0.021338332  
    404000   0.99226932    -0.20265352     0.028680572    1.3134677      0.022050939  
    405000   1.0015017     -0.22018526     0.027417797    1.3085127      0.021812685  
    406000   1.0392237     -0.21587917     0.042409942    1.3843574      0.020719684  
    407000   1.0009441     -0.22943589     0.034445569    1.305454       0.02110357   
    408000   1.0211118     -0.20753418     0.032097479    1.3552397      0.022814889  
    409000   1.0063864     -0.20901362     0.039126336    1.3387152      0.020197332  
    410000   1.0215179     -0.22910089     0.035544175    1.3377284      0.021836423  
    411000   1.0178767     -0.22242122     0.039760886    1.3431664      0.02238715   
    412000   0.95938787    -0.21110819     0.040572615    1.2676148      0.021562723  
    413000   1.041293      -0.21210291     0.034476685    1.3833024      0.022312687  
    414000   0.98989605    -0.20085534     0.039560171    1.3225878      0.020986678  
    415000   1.0199146     -0.21667553     0.030892919    1.343099       0.022387774  
    416000   1.020502      -0.20133353     0.035510498    1.3639392      0.021276938  
    417000   1.012328      -0.21918827     0.03215155     1.3304724      0.021648698  
    418000   1.0357682     -0.2254149      0.038920696    1.3661525      0.022580499  
    419000   1.0117855     -0.2224954      0.038551965    1.3327525      0.021302806  
    420000   0.97566732    -0.22524064     0.029085812    1.2663989      0.021614487  
    421000   0.98042718    -0.20080716     0.027216597    1.2960983      0.020525763  
    422000   1.0178835     -0.21359983     0.033074285    1.3453114      0.022116613  
    423000   0.98920229    -0.22782066     0.038223444    1.2932458      0.020670173  
    424000   0.98379852    -0.2004655      0.037001704    1.3112788      0.020824681  
    425000   1.0641526     -0.23087455     0.030703851    1.395025       0.023554145  
    426000   1.0216516     -0.21537292     0.033283811    1.3493964      0.021457756  
    427000   0.99026515    -0.2133847      0.027462119    1.2985137      0.020085722  
    428000   0.95650989    -0.20876501     0.044567326    1.2696385      0.020790969  
    429000   1.0285431     -0.20105615     0.033455975    1.3742159      0.022288063  
    430000   0.98778129    -0.20199745     0.035748035    1.3144635      0.020440463  
    431000   1.0147614     -0.22395535     0.027570265    1.3247718      0.021918057  
    432000   1.0031302     -0.21490057     0.028485889    1.3173067      0.020511107  
    433000   0.96571112    -0.21364087     0.037375094    1.2713633      0.021414821  
    434000   1.0028955     -0.21718511     0.039179394    1.3253639      0.021757246  
    435000   1.019938      -0.22945169     0.028065571    1.3275307      0.021507146  
    436000   1.0174308     -0.22204322     0.0341351      1.3372503      0.021305499  
    437000   0.9956684     -0.21984341     0.035897337    1.3085899      0.020446019  
    438000   0.97407784    -0.21092733     0.045902446    1.2951462      0.019434099  
    439000   1.0404044     -0.21783847     0.03451046     1.3762685      0.023751393  
    440000   0.99067566    -0.21228244     0.036058643    1.3088279      0.021797021  
    441000   1.0151525     -0.205101       0.033640998    1.3502831      0.022141306  
    442000   0.96761161    -0.20484873     0.035585377    1.2812146      0.02052975   
    443000   1.0289301     -0.2120426      0.041379614    1.3717332      0.022351873  
    444000   0.9703396     -0.21873668     0.039417372    1.275248       0.020380226  
    445000   1.0111928     -0.21366121     0.035414495    1.3375607      0.022010439  
    446000   1.0133905     -0.22078942     0.039066922    1.3373794      0.020767065  
    447000   0.98364459    -0.21267073     0.036635367    1.2984765      0.021200021  
    448000   0.98590199    -0.20663032     0.036481947    1.3077474      0.022113503  
    449000   1.0355845     -0.20461058     0.030189612    1.3779504      0.021494388  
    450000   1.0263697     -0.21835044     0.030421332    1.350629       0.020989501  
    451000   1.0067397     -0.20658243     0.034824022    1.3373738      0.022522202  
    452000   1.027034      -0.21374492     0.035407896    1.3612169      0.021989271  
    453000   0.9993264     -0.20842919     0.040234646    1.3298248      0.023073538  
    454000   1.0191671     -0.22695034     0.035569394    1.3363802      0.021388631  
    455000   0.98179982    -0.21628032     0.044496746    1.299963       0.020338899  
    456000   1.0214944     -0.21529829     0.039479005    1.3554306      0.02224741   
    457000   1.0040549     -0.20759071     0.031152394    1.3286692      0.022183101  
    458000   0.99780968    -0.21699702     0.033771671    1.3125204      0.021873645  
    459000   0.97973411    -0.22058713     0.03890121     1.286964       0.020832906  
    460000   0.95867966    -0.22218147     0.045963769    1.260871       0.020401347  
    461000   0.99255589    -0.20552688     0.036895027    1.3192383      0.02206214   
    462000   0.99567966    -0.20991945     0.035078624    1.317712       0.021147187  
    463000   1.0133302     -0.20163859     0.041937532    1.3593105      0.022114908  
    464000   0.97404338    -0.20708891     0.047264441    1.3002949      0.021498947  
    465000   0.98623355    -0.20506247     0.046020939    1.3193513      0.021786147  
    466000   1.0286563     -0.21560122     0.040787556    1.3671721      0.021803688  
    467000   1.0026241     -0.20710544     0.034778842    1.3306361      0.022100534  
    468000   1.0106418     -0.20255587     0.0425698      1.3549955      0.020486179  
    469000   1.0261544     -0.21268161     0.037327518    1.3628812      0.022872246  
    470000   1.0083804     -0.23330652     0.038679828    1.3169648      0.021972322  
    471000   0.98306201    -0.23788299     0.038889544    1.2746451      0.021373831  
    472000   0.96529171    -0.2207978      0.039469815    1.2656724      0.020312604  
    473000   1.0018582     -0.21054694     0.033036375    1.3243041      0.02155645   
    474000   1.0189966     -0.21619269     0.037438947    1.3487518      0.022087088  
    475000   1.0126736     -0.22728381     0.034739372    1.3254827      0.021516924  
    476000   1.0325724     -0.21766338     0.02573546     1.3559282      0.023376802  
    477000   0.99457247    -0.22353548     0.034467426    1.301825       0.020883379  
    478000   1.0090561     -0.20048666     0.036566667    1.3486845      0.021104267  
    479000   0.98476385    -0.22225793     0.033291453    1.2872232      0.021853423  
    480000   0.9699724     -0.22380946     0.03088535     1.2610928      0.020840303  
    481000   0.98683822    -0.22007223     0.038545828    1.2977728      0.0213145    
    482000   0.97724558    -0.21845885     0.035643499    1.2821042      0.021936092  
    483000   1.018728      -0.2224926      0.033991194    1.3386015      0.021679068  
    484000   1.0347047     -0.21139729     0.19207874     1.5317339      0.018039536  
    485000   1.0028078     -0.21951024     0.040344498    1.3240724      0.021798182  
    486000   0.98103423    -0.21083172     0.032386756    1.2921539      0.020778118  
    487000   1.0079156     -0.23811306     0.031012682    1.3037944      0.020708419  
    488000   1.001841      -0.2270538      0.041247719    1.3159827      0.021020471  
    489000   0.99306856    -0.1897775      0.039685331    1.3385465      0.021891621  
    490000   1.0062716     -0.2113253      0.038922178    1.3360274      0.020844577  
    491000   1.0175097     -0.20330472     0.047449713    1.3694217      0.022245706  
    492000   1.022531      -0.21273737     0.041216255    1.3612827      0.020880914  
    493000   1.0155643     -0.22889385     0.037909796    1.3313764      0.022034205  
    494000   1.0024021     -0.2177445      0.035140815    1.3200263      0.023057062  
    495000   0.98442673    -0.22897866     0.033697245    1.2804029      0.021210145  
    496000   0.99912075    -0.22157248     0.038620674    1.3147593      0.02026419   
    497000   1.0010735     -0.18992062     0.037302789    1.3480205      0.022166141  
    498000   0.97103675    -0.19260275     0.03597953     1.2989892      0.021337971  
    499000   1.0011045     -0.23389612     0.034365387    1.301154       0.022736783  
    500000   0.97359338    -0.22622836     0.039925161    1.2731416      0.019832848  
Loop time of 52.9528 on 1 procs for 500000 steps with 1545 atoms

Performance: 4079106.666 tau/day, 9442.377 timesteps/s, 14.588 Matom-step/s
99.9% CPU use with 1 MPI tasks x no OpenMP threads

MPI task timing breakdown:
Section |  min time  |  avg time  |  max time  |%varavg| %total
---------------------------------------------------------------
Pair    | 6.1521     | 6.1521     | 6.1521     |   0.0 | 11.62
Bond    | 0.71154    | 0.71154    | 0.71154    |   0.0 |  1.34
Neigh   | 12.884     | 12.884     | 12.884     |   0.0 | 24.33
Comm    | 2.2494     | 2.2494     | 2.2494     |   0.0 |  4.25
Output  | 0.27502    | 0.27502    | 0.27502    |   0.0 |  0.52
Modify  | 29.445     | 29.445     | 29.445     |   0.0 | 55.61
Other   |            | 1.236      |            |       |  2.33

Nlocal:           1545 ave        1545 max        1545 min
Histogram: 1 0 0 0 0 0 0 0 0 0
Nghost:            704 ave         704 max         704 min
Histogram: 1 0 0 0 0 0 0 0 0 0
Neighs:           1897 ave        1897 max        1897 min
Histogram: 1 0 0 0 0 0 0 0 0 0

Total # of neighbors = 1897
Ave neighs/atom = 1.2278317
Ave special neighs/atom = 0.13592233
Neighbor list builds = 62976
Dangerous builds = 0
Total wall time: 0:00:52
