# PART B - MOLECULAR DYNAMICS

# 1) Initialization
units lj
dimension 3
atom_style atomic
pair_style lj/cut 2.5
boundary p p p

# 2) System definition
read_data ../../energy-minimization/data/raw/topology/minimized_coordinate.data
Reading data file ...
  orthogonal box = (-20 -20 -20) to (20 20 20)
  1 by 1 by 1 MPI processor grid
  reading atoms ...
  16000 atoms
  reading velocities ...
  16000 velocities
  read_data CPU = 0.029 seconds
group atom_type_1 type 1
8000 atoms in group atom_type_1
group atom_type_2 type 2
8000 atoms in group atom_type_2

# 3) Visualization
thermo 1000
dump dump_all_atoms_per_100_timestep all atom 1000 ../data/raw/trajectory/dump_all_atoms_per_100_timestep.md.lammpstrj

compute compute_atom_type_1_2_coordination_number atom_type_1 coord/atom cutoff 2.0 group atom_type_2
compute compute_average_atom_type_1_2_coordination_number all reduce ave c_compute_atom_type_1_2_coordination_number

fix fix_average_atom_type_1_2_coordination_number all ave/time 10 200 2000     c_compute_average_atom_type_1_2_coordination_number     file ../data/raw/atom-coordination-number/average_atom_type_1_2_coordination_number.dat

# 4) Run
velocity all create 1.0 4928459 mom yes rot yes dist gaussian
fix fix_nph_ensemble all nph iso 1.0 1.0 0.5
timestep 0.005
run 100000
Generated 0 of 1 mixed pair_coeff terms from geometric mixing rule
Neighbor list info ...
  update: every = 1 steps, delay = 0 steps, check = yes
  max neighbors/atom: 2000, page size: 100000
  master list distance cutoff = 2.8
  ghost atom cutoff = 2.8
  binsize = 1.4, bins = 29 29 29
  2 neighbor lists, perpetual/occasional/extra = 1 1 0
  (1) pair lj/cut, perpetual
      attributes: half, newton on
      pair build: half/bin/atomonly/newton
      stencil: half/bin/3d
      bin: standard
  (2) compute coord/atom, occasional
      attributes: full, newton on
      pair build: full/bin/atomonly
      stencil: full/bin/3d
      bin: standard
Per MPI rank memory allocation (min/avg/max) = 7.211 | 7.211 | 7.211 Mbytes
   Step          Temp          E_pair         E_mol          TotEng         Press          Volume    
         0   1             -19.768421      0             -18.268515      0.16174717     64000        
      1000   2.6467909     -22.41843       0             -18.448492      0.96228319     20642.73     
      2000   3.0264044     -23.14372       0             -18.604397      1.002786       21003.986    
      3000   3.2062185     -23.507212      0             -18.698185      0.92659888     21302.903    
      4000   3.3112995     -23.726933      0             -18.760294      1.0961486      21488.377    
      5000   3.3706505     -23.851619      0             -18.795959      0.89195648     21588.483    
      6000   3.43249       -23.964251      0             -18.815838      1.0943177      21538.345    
      7000   3.440066      -23.994895      0             -18.835119      0.95237832     21602.084    
      8000   3.4919757     -24.094568      0             -18.856932      1.1295925      21561.428    
      9000   3.4832554     -24.099197      0             -18.87464       0.93611969     21677.277    
     10000   3.5495683     -24.21393       0             -18.88991       0.94575898     21560.381    
     11000   3.5590124     -24.238124      0             -18.899939      1.1735894      21527.726    
     12000   3.5195055     -24.182337      0             -18.903409      0.93898157     21603.171    
     13000   3.5898993     -24.301221      0             -18.916708      1.044132       21567.912    
     14000   3.5466352     -24.242006      0             -18.922386      1.0063085      21611.983    
     15000   3.5568017     -24.264848      0             -18.929979      0.74669618     21640.763    
     16000   3.5715215     -24.299844      0             -18.942896      0.91939851     21601.132    
     17000   3.5689149     -24.306411      0             -18.953373      1.1602424      21575.583    
     18000   3.6269579     -24.413632      0             -18.973535      0.98860457     21640.309    
     19000   3.6237813     -24.413788      0             -18.978456      1.0611051      21567.185    
     20000   3.6585672     -24.478965      0             -18.991457      0.98457566     21577.817    
     21000   3.6102262     -24.404936      0             -18.989935      0.88284647     21592.045    
     22000   3.673327      -24.511542      0             -19.001896      1.0375402      21521.924    
     23000   3.6235919     -24.440506      0             -19.005457      1.078796       21560.097    
     24000   3.6668237     -24.518277      0             -19.018385      1.022407       21623.524    
     25000   3.6432653     -24.479956      0             -19.015399      1.1998057      21557.573    
     26000   3.6081089     -24.432486      0             -19.020661      0.91948487     21617.846    
     27000   3.6752379     -24.536131      0             -19.023618      1.0405921      21514.761    
     28000   3.6717756     -24.537661      0             -19.030342      1.1201211      21505.754    
     29000   3.6481531     -24.507318      0             -19.03543       0.96152996     21609.553    
     30000   3.6286962     -24.480223      0             -19.037519      1.0336271      21625.988    
     31000   3.6498167     -24.513094      0             -19.038711      1.1215532      21534.543    
     32000   3.6455231     -24.513879      0             -19.045936      1.0309953      21584.553    
     33000   3.600373      -24.444544      0             -19.044322      0.99966048     21620.323    
     34000   3.6330107     -24.503634      0             -19.054458      1.0891216      21644.392    
     35000   3.6011372     -24.453967      0             -19.052598      0.82234226     21660.684    
     36000   3.6524798     -24.538987      0             -19.06061       0.98931586     21607.381    
     37000   3.6108483     -24.470871      0             -19.054937      0.99920389     21496.727    
     38000   3.6136195     -24.491285      0             -19.071195      1.2228933      21611.827    
     39000   3.6280979     -24.513548      0             -19.071742      1.1886637      21557.881    
     40000   3.662828      -24.563943      0             -19.070045      1.0037423      21456.205    
     41000   3.6432659     -24.547565      0             -19.083008      1.172773       21581.709    
     42000   3.6252677     -24.523653      0             -19.086091      0.95900981     21623.634    
     43000   3.6633311     -24.582369      0             -19.087716      0.95193929     21562.666    
     44000   3.6318682     -24.532458      0             -19.084996      0.9337228      21520.711    
     45000   3.6543449     -24.57017       0             -19.088995      1.0536888      21528.847    
     46000   3.6343461     -24.543376      0             -19.092198      0.88677799     21523.078    
     47000   3.6184428     -24.523233      0             -19.095908      0.87903184     21583.837    
     48000   3.6227674     -24.538983      0             -19.105171      0.87787081     21667.981    
     49000   3.6366184     -24.561538      0             -19.106951      0.95365176     21561.259    
     50000   3.6081224     -24.515858      0             -19.104013      0.97629903     21510.097    
     51000   3.637634      -24.559851      0             -19.103741      1.1036971      21436.316    
     52000   3.6421838     -24.572433      0             -19.109498      0.88062337     21496.689    
     53000   3.6811159     -24.633183      0             -19.111854      1.0616758      21402.328    
     54000   3.6430481     -24.581535      0             -19.117304      0.810843       21543.511    
     55000   3.6247226     -24.555623      0             -19.118879      0.90647681     21480.172    
     56000   3.6199197     -24.547729      0             -19.118189      1.1563584      21436.446    
     57000   3.6186358     -24.548914      0             -19.121299      0.86715093     21493.9      
     58000   3.6225613     -24.566344      0             -19.132841      0.78353175     21594.802    
     59000   3.5855196     -24.506279      0             -19.128336      0.99168981     21478.268    
     60000   3.6465941     -24.61081       0             -19.141261      1.0668706      21515.939    
     61000   3.6170709     -24.564198      0             -19.138931      1.0378136      21457.035    
     62000   3.6370308     -24.60231       0             -19.147105      1.0740795      21478.519    
     63000   3.6025599     -24.551745      0             -19.148243      1.0031201      21524.345    
     64000   3.6342652     -24.606153      0             -19.155096      1.0657001      21531.424    
     65000   3.6155641     -24.580741      0             -19.157734      0.93353528     21525.595    
     66000   3.6279836     -24.598857      0             -19.157222      1.1088181      21414.887    
     67000   3.6022144     -24.568802      0             -19.165819      1.0138097      21554.298    
     68000   3.6084654     -24.575373      0             -19.163013      1.0429049      21487.211    
     69000   3.6032193     -24.571706      0             -19.167215      0.66970962     21570.697    
     70000   3.6263713     -24.604862      0             -19.165645      0.92089079     21437.076    
     71000   3.6093658     -24.585039      0             -19.171329      0.85509859     21527.208    
     72000   3.6394732     -24.635367      0             -19.176498      0.96072206     21478.697    
     73000   3.5663042     -24.532813      0             -19.183691      0.87695516     21599.922    
     74000   3.6027142     -24.591312      0             -19.187579      1.1160726      21522.064    
     75000   3.6164841     -24.611434      0             -19.187047      1.0540046      21456.238    
     76000   3.6105188     -24.609827      0             -19.194387      1.1571145      21468.391    
     77000   3.6168728     -24.619281      0             -19.194311      1.2145521      21462.753    
     78000   3.5813417     -24.565623      0             -19.193947      1.141419       21429.393    
     79000   3.6103875     -24.616707      0             -19.201464      0.80894111     21504.585    
     80000   3.5899195     -24.59559       0             -19.211047      1.3003305      21486.387    
     81000   3.5952037     -24.60788       0             -19.215412      1.2656355      21452.463    
     82000   3.6080451     -24.628425      0             -19.216696      0.90747211     21481.136    
     83000   3.6048536     -24.62427       0             -19.217328      1.1158104      21433.416    
     84000   3.6246332     -24.663075      0             -19.226465      0.87466734     21565.586    
     85000   3.619487      -24.650629      0             -19.221738      0.79680149     21450.831    
     86000   3.6146263     -24.64909       0             -19.227489      0.74267095     21473.816    
     87000   3.5876044     -24.618964      0             -19.237894      1.0588974      21578.579    
     88000   3.5927307     -24.624767      0             -19.236008      1.2028447      21466.056    
     89000   3.5763796     -24.60504       0             -19.240806      0.77760412     21561.505    
     90000   3.6079378     -24.654151      0             -19.242583      0.83182467     21444.662    
     91000   3.5948727     -24.639645      0             -19.247673      1.0228662      21467.555    
     92000   3.5791918     -24.617491      0             -19.249038      0.86720215     21514.552    
     93000   3.6037457     -24.657564      0             -19.252283      0.96724643     21446.108    
     94000   3.6333641     -24.703977      0             -19.254272      1.0919279      21392.289    
     95000   3.585322      -24.630391      0             -19.252744      0.90675202     21445.308    
     96000   3.5987351     -24.656489      0             -19.258724      1.2684262      21430.031    
     97000   3.588874      -24.645974      0             -19.262999      0.91407376     21487.01     
     98000   3.571137      -24.616418      0             -19.260047      1.1253244      21404.141    
     99000   3.6120193     -24.685183      0             -19.267492      1.0716799      21427.866    
    100000   3.5976897     -24.667337      0             -19.27114       0.98499271     21447.341    
Loop time of 1100.87 on 1 procs for 100000 steps with 16000 atoms

Performance: 39241.736 tau/day, 90.837 timesteps/s, 1.453 Matom-step/s
100.0% CPU use with 1 MPI tasks x 1 OpenMP threads

MPI task timing breakdown:
Section |  min time  |  avg time  |  max time  |%varavg| %total
---------------------------------------------------------------
Pair    | 423.44     | 423.44     | 423.44     |   0.0 | 38.46
Neigh   | 365.35     | 365.35     | 365.35     |   0.0 | 33.19
Comm    | 8.0517     | 8.0517     | 8.0517     |   0.0 |  0.73
Output  | 0.54936    | 0.54936    | 0.54936    |   0.0 |  0.05
Modify  | 300.01     | 300.01     | 300.01     |   0.0 | 27.25
Other   |            | 3.457      |            |       |  0.31

Nlocal:          16000 ave       16000 max       16000 min
Histogram: 1 0 0 0 0 0 0 0 0 0
Nghost:          11965 ave       11965 max       11965 min
Histogram: 1 0 0 0 0 0 0 0 0 0
Neighs:         538464 ave      538464 max      538464 min
Histogram: 1 0 0 0 0 0 0 0 0 0
FullNghs:  1.07693e+06 ave 1.07693e+06 max 1.07693e+06 min
Histogram: 1 0 0 0 0 0 0 0 0 0

Total # of neighbors = 1076928
Ave neighs/atom = 67.308
Neighbor list builds = 25972
Dangerous builds = 0
Total wall time: 0:18:20
