ITEM: TIMESTEP
0
ITEM: NUMBER OF ATOMS
101
ITEM: BOX BOUNDS pp pp pp
-4.5000000000000000e+01 4.5000000000000000e+01
-1.5000000000000000e+01 1.5000000000000000e+01
-1.5000000000000000e+01 1.5000000000000000e+01
ITEM: ATOMS id type xs ys zs
9 1 0.566906 0.132076 0.0243134
10 2 0.559036 0.12732 0.0653174
11 3 0.559382 0.0914873 0.0759725
12 3 0.54719 0.138199 0.0610504
13 2 0.567005 0.156637 0.099274
14 3 0.578171 0.167279 0.0864486
15 3 0.568388 0.138341 0.131627
16 1 0.557782 0.19467 0.106118
17 2 0.564449 0.226368 0.135365
18 3 0.574555 0.240851 0.118932
19 3 0.567679 0.209926 0.167535
20 2 0.552897 0.262663 0.143368
21 3 0.544135 0.262058 0.116761
22 3 0.558379 0.296251 0.144117
23 1 0.546403 0.253743 0.185793
24 2 0.534606 0.283814 0.19593
25 3 0.52524 0.278353 0.171856
26 3 0.538614 0.319155 0.193497
27 2 0.529573 0.273102 0.243259
29 3 0.517139 0.274542 0.245531
100 7 0.414569 0.948029 0.0118903
96 3 0.439725 0.902376 0.0232663
99 3 0.433411 0.984599 0.0110973
28 3 0.533566 0.23925 0.253736
45 2 0.499563 0.446188 0.442942
46 3 0.490439 0.425508 0.428044
47 3 0.498525 0.481566 0.431179
48 2 0.499 0.443823 0.493685
30 1 0.535833 0.306505 0.27138
31 2 0.532646 0.29876 0.317291
32 3 0.538427 0.267543 0.328396
33 3 0.52035 0.295209 0.322378
34 2 0.538629 0.338857 0.342837
35 3 0.547012 0.357491 0.322361
36 3 0.54383 0.327775 0.37497
37 1 0.526192 0.366737 0.352306
38 2 0.530481 0.407452 0.373194
39 3 0.537631 0.427179 0.349754
40 3 0.5368 0.400296 0.404639
41 2 0.516178 0.432745 0.383276
42 3 0.506625 0.418528 0.363897
43 3 0.517533 0.468991 0.375002
44 1 0.513572 0.428181 0.429938
50 3 0.487857 0.431468 0.505014
54 3 0.492513 0.473382 0.57273
49 3 0.507954 0.421362 0.506846
51 1 0.501155 0.488175 0.509515
52 2 0.502353 0.490015 0.556878
53 3 0.512823 0.472735 0.567518
58 1 0.488803 0.55021 0.587631
59 2 0.487274 0.596828 0.595736
60 3 0.487289 0.615054 0.563084
61 3 0.496686 0.609074 0.617006
62 2 0.472435 0.603057 0.619477
63 3 0.465706 0.571577 0.618421
64 3 0.46598 0.630936 0.603786
65 1 0.475841 0.614373 0.664508
66 2 0.462819 0.61862 0.691247
67 3 0.457324 0.585192 0.694377
68 3 0.454909 0.642979 0.675657
69 2 0.467935 0.635034 0.736835
70 3 0.480197 0.629791 0.741164
72 1 0.464509 0.681406 0.738712
55 2 0.502966 0.539262 0.569333
56 3 0.50528 0.560321 0.539206
57 3 0.511757 0.545167 0.595183
77 3 0.460378 0.759314 0.74369
3 5 0.56954 0.116871 0.947538
4 3 0.564299 0.100862 0.917612
5 3 0.571126 0.153487 0.94151
6 2 0.559721 0.109686 0.988351
7 3 0.558705 0.0732669 0.996262
8 3 0.548403 0.124271 0.982792
1 4 0.587929 0.107345 0.97913
2 6 0.583456 0.0956617 0.952295
71 3 0.461744 0.617191 0.763957
73 2 0.469981 0.701845 0.778364
74 3 0.482443 0.700928 0.778163
75 3 0.465685 0.68375 0.808463
76 2 0.464486 0.74992 0.77774
101 4 0.410135 0.923381 0.996014
78 3 0.473618 0.773184 0.788082
79 1 0.452654 0.752472 0.809266
80 2 0.445725 0.795211 0.80942
81 3 0.440104 0.800867 0.776517
82 3 0.454229 0.821932 0.815286
83 2 0.434267 0.794523 0.846842
84 3 0.431525 0.759391 0.856715
85 3 0.42389 0.812265 0.83612
86 1 0.440734 0.817708 0.883534
87 2 0.431499 0.816609 0.922132
88 3 0.430312 0.781276 0.933856
89 3 0.420257 0.830679 0.914123
90 2 0.439304 0.844665 0.957468
91 3 0.451118 0.851502 0.947653
92 3 0.439041 0.827286 0.990575
93 1 0.431209 0.885419 0.960716
94 2 0.438333 0.916989 0.989101
95 3 0.449479 0.926071 0.975101
97 5 0.428169 0.957649 0.990474
98 3 0.426071 0.970081 0.955751
ITEM: TIMESTEP
10
ITEM: NUMBER OF ATOMS
101
ITEM: BOX BOUNDS pp pp pp
-4.5000000000000000e+01 4.5000000000000000e+01
-1.5000000000000000e+01 1.5000000000000000e+01
-1.5000000000000000e+01 1.5000000000000000e+01
ITEM: ATOMS id type xs ys zs
9 1 0.567044 0.131619 0.0240284
10 2 0.559176 0.12699 0.0652863
11 3 0.559475 0.0912146 0.0759961
12 3 0.547393 0.138021 0.0606302
13 2 0.56691 0.156464 0.0996619
14 3 0.578051 0.166898 0.0867305
15 3 0.568399 0.137927 0.131744
16 1 0.557735 0.194797 0.106116
17 2 0.564464 0.22674 0.135098
18 3 0.574573 0.241486 0.119112
19 3 0.567663 0.210625 0.167394
20 2 0.553026 0.262807 0.143591
21 3 0.544352 0.262045 0.116821
22 3 0.558531 0.296291 0.143861
23 1 0.546431 0.253594 0.185939
24 2 0.534517 0.283452 0.195932
25 3 0.525083 0.27836 0.172123
26 3 0.538458 0.318795 0.193693
27 2 0.529493 0.273458 0.243088
29 3 0.517071 0.274501 0.245041
100 7 0.414423 0.947928 0.0115094
96 3 0.439707 0.902927 0.0235144
99 3 0.433893 0.985778 0.0106624
28 3 0.533485 0.239591 0.253256
45 2 0.499534 0.445774 0.443073
46 3 0.490297 0.425417 0.428538
47 3 0.498449 0.481144 0.431531
48 2 0.49887 0.443982 0.493528
30 1 0.535877 0.306673 0.271346
31 2 0.532786 0.298709 0.317376
32 3 0.538499 0.267635 0.328941
33 3 0.520518 0.295303 0.322763
34 2 0.538581 0.338548 0.343116
35 3 0.546979 0.356864 0.322504
36 3 0.543882 0.327211 0.37492
37 1 0.526128 0.366628 0.352281
38 2 0.530431 0.407627 0.372812
39 3 0.537567 0.427729 0.34975
40 3 0.536701 0.400726 0.404319
41 2 0.516301 0.432986 0.383407
42 3 0.506814 0.418712 0.363892
43 3 0.51769 0.469017 0.3746
44 1 0.513628 0.428095 0.430102
50 3 0.487769 0.431179 0.504498
54 3 0.492671 0.473752 0.57283
49 3 0.507806 0.421414 0.506445
51 1 0.50116 0.488369 0.509374
52 2 0.502493 0.490176 0.556801
53 3 0.512917 0.473115 0.567961
58 1 0.488747 0.550001 0.587652
59 2 0.487155 0.596739 0.595457
60 3 0.487106 0.61544 0.56315
61 3 0.496509 0.609133 0.616749
62 2 0.472506 0.60346 0.619446
63 3 0.465819 0.571999 0.618154
64 3 0.466096 0.631062 0.603242
65 1 0.475911 0.614366 0.664672
66 2 0.462864 0.61828 0.691507
67 3 0.457261 0.585135 0.694977
68 3 0.454935 0.642679 0.676215
69 2 0.46779 0.634947 0.73684
70 3 0.480026 0.629443 0.740969
72 1 0.464459 0.681477 0.738535
55 2 0.502987 0.539002 0.569698
56 3 0.505339 0.559848 0.539522
57 3 0.511896 0.544629 0.595145
77 3 0.460533 0.759076 0.744031
3 5 0.569526 0.116003 0.94639
4 3 0.563806 0.10148 0.916553
5 3 0.571021 0.152688 0.940986
6 2 0.559844 0.109445 0.987761
7 3 0.558723 0.0731135 0.995675
8 3 0.548544 0.1241 0.982519
1 4 0.587993 0.107197 0.980144
2 6 0.583595 0.0960135 0.952435
71 3 0.461673 0.616669 0.763714
73 2 0.470057 0.702096 0.778044
74 3 0.482499 0.701488 0.778302
75 3 0.465774 0.684255 0.808216
76 2 0.464567 0.749836 0.778119
101 4 0.410075 0.922347 0.995942
78 3 0.473784 0.772871 0.788058
79 1 0.452621 0.752296 0.809395
80 2 0.445594 0.795015 0.809235
81 3 0.439944 0.801121 0.776533
82 3 0.454016 0.821837 0.815286
83 2 0.434246 0.794867 0.846534
84 3 0.431535 0.759679 0.856042
85 3 0.423869 0.812226 0.835469
86 1 0.440778 0.817747 0.883415
87 2 0.431597 0.816192 0.922244
88 3 0.430298 0.781063 0.934226
89 3 0.420379 0.830339 0.914461
90 2 0.439161 0.844619 0.957819
91 3 0.450907 0.851918 0.947921
92 3 0.438957 0.827176 0.990849
93 1 0.431059 0.885587 0.961265
94 2 0.438209 0.917517 0.989445
95 3 0.449336 0.926307 0.97531
97 5 0.428186 0.958622 0.991555
98 3 0.426188 0.97046 0.956641
ITEM: TIMESTEP
20
ITEM: NUMBER OF ATOMS
101
ITEM: BOX BOUNDS pp pp pp
-4.5000000000000000e+01 4.5000000000000000e+01
-1.5000000000000000e+01 1.5000000000000000e+01
-1.5000000000000000e+01 1.5000000000000000e+01
ITEM: ATOMS id type xs ys zs
9 1 0.567466 0.130137 0.0234226
10 2 0.559476 0.126295 0.0646103
11 3 0.559669 0.090658 0.0758464
12 3 0.547696 0.137177 0.0593736
13 2 0.566978 0.156072 0.0994468
14 3 0.57828 0.166238 0.0875331
15 3 0.568149 0.137424 0.131605
16 1 0.557862 0.194607 0.106128
17 2 0.56458 0.227023 0.134896
18 3 0.574648 0.241793 0.118641
19 3 0.567952 0.211325 0.167247
20 2 0.553119 0.263203 0.143502
21 3 0.544538 0.262925 0.116431
22 3 0.558664 0.296624 0.144227
23 1 0.546411 0.253895 0.185761
24 2 0.534377 0.283436 0.195728
25 3 0.524968 0.277936 0.171918
26 3 0.538103 0.318985 0.193275
27 2 0.529345 0.273458 0.243016
29 3 0.516928 0.274911 0.245088
100 7 0.414403 0.949134 0.0113986
96 3 0.439619 0.904313 0.0246294
99 3 0.433864 0.986427 0.0117956
28 3 0.533143 0.239319 0.252996
45 2 0.499421 0.445486 0.442964
46 3 0.490286 0.424675 0.428463
47 3 0.498129 0.480768 0.431308
48 2 0.498734 0.443804 0.493559
30 1 0.535813 0.306455 0.271502
31 2 0.532874 0.298308 0.317661
32 3 0.538689 0.267285 0.328954
33 3 0.520638 0.294513 0.323456
34 2 0.538672 0.338234 0.343497
35 3 0.547214 0.356294 0.323185
36 3 0.543857 0.326896 0.375489
37 1 0.526244 0.366613 0.35231
38 2 0.53052 0.407885 0.372547
39 3 0.537546 0.42786 0.349073
40 3 0.536922 0.401592 0.40397
41 2 0.516368 0.433347 0.383239
42 3 0.506894 0.419513 0.363352
43 3 0.51778 0.469482 0.374832
44 1 0.513587 0.428225 0.429902
50 3 0.487563 0.431497 0.504504
54 3 0.492945 0.473334 0.573445
49 3 0.507527 0.420771 0.506569
51 1 0.501163 0.488139 0.50953
52 2 0.502639 0.490023 0.556974
53 3 0.513148 0.473116 0.567679
58 1 0.488807 0.550124 0.587641
59 2 0.487111 0.596927 0.595125
60 3 0.487013 0.6152 0.562562
61 3 0.496487 0.609859 0.616012
62 2 0.47245 0.603761 0.619305
63 3 0.465624 0.572572 0.617405
64 3 0.466162 0.631791 0.603404
65 1 0.475827 0.614284 0.664728
66 2 0.462783 0.617818 0.691726
67 3 0.457298 0.584482 0.695187
68 3 0.454708 0.64186 0.67654
69 2 0.467685 0.63461 0.737168
70 3 0.479886 0.628641 0.741637
72 1 0.464499 0.68131 0.7387
55 2 0.503104 0.538949 0.570028
56 3 0.505649 0.559842 0.540014
57 3 0.511901 0.544451 0.595867
77 3 0.460882 0.75962 0.744
3 5 0.569508 0.115842 0.945208
4 3 0.563832 0.100598 0.91566
5 3 0.570904 0.152541 0.939657
6 2 0.56003 0.108758 0.986937
7 3 0.558831 0.0722993 0.994138
8 3 0.548727 0.123697 0.982236
1 4 0.587413 0.105826 0.980163
2 6 0.583589 0.0962972 0.95123
71 3 0.461454 0.616626 0.764027
73 2 0.470196 0.702186 0.778048
74 3 0.482641 0.701562 0.777787
75 3 0.466125 0.684446 0.808562
76 2 0.464693 0.750049 0.778241
101 4 0.410663 0.922136 0.997102
78 3 0.473881 0.772981 0.788655
79 1 0.452616 0.752514 0.809168
80 2 0.44549 0.795174 0.808889
81 3 0.439807 0.800821 0.776151
82 3 0.45382 0.822365 0.814524
83 2 0.434115 0.79515 0.846314
84 3 0.43122 0.759976 0.855408
85 3 0.423783 0.812806 0.835269
86 1 0.440644 0.817717 0.88362
87 2 0.431526 0.816327 0.922698
88 3 0.43055 0.781114 0.934766
89 3 0.420151 0.829412 0.914999
90 2 0.438857 0.845117 0.958671
91 3 0.450589 0.853017 0.948992
92 3 0.438785 0.827146 0.991436
93 1 0.430617 0.885814 0.962961
94 2 0.438016 0.918164 0.990292
95 3 0.449134 0.926445 0.975665
97 5 0.428195 0.959742 0.991948
98 3 0.426312 0.971805 0.95705
ITEM: TIMESTEP
30
ITEM: NUMBER OF ATOMS
101
ITEM: BOX BOUNDS pp pp pp
-4.5000000000000000e+01 4.5000000000000000e+01
-1.5000000000000000e+01 1.5000000000000000e+01
-1.5000000000000000e+01 1.5000000000000000e+01
ITEM: ATOMS id type xs ys zs
9 1 0.567601 0.129753 0.0233463
10 2 0.559577 0.126138 0.0644252
11 3 0.559699 0.0905374 0.0756847
12 3 0.547826 0.137162 0.0590391
13 2 0.567047 0.155906 0.0992649
14 3 0.578375 0.165873 0.0874259
15 3 0.56814 0.137325 0.13148
16 1 0.557902 0.194498 0.105531
17 2 0.564569 0.226853 0.134401
18 3 0.574605 0.241714 0.118069
19 3 0.567991 0.211013 0.166626
20 2 0.553151 0.263116 0.143419
21 3 0.544584 0.263221 0.116326
22 3 0.558765 0.296425 0.144452
23 1 0.54641 0.253841 0.18562
24 2 0.534333 0.283299 0.195644
25 3 0.524945 0.277462 0.171834
26 3 0.537998 0.318899 0.193039
27 2 0.52929 0.273534 0.242961
29 3 0.516878 0.275327 0.24502
100 7 0.414284 0.949976 0.0114409
96 3 0.439536 0.904632 0.0249614
99 3 0.433828 0.986691 0.0122152
28 3 0.533006 0.239333 0.252988
45 2 0.499397 0.44526 0.442951
46 3 0.490305 0.424243 0.428508
47 3 0.498006 0.480439 0.431113
48 2 0.498659 0.44383 0.493514
30 1 0.535823 0.306389 0.271477
31 2 0.532943 0.298196 0.317706
32 3 0.538833 0.26725 0.328841
33 3 0.520728 0.294119 0.323658
34 2 0.538667 0.33806 0.343691
35 3 0.547278 0.356052 0.323601
36 3 0.543772 0.326696 0.375789
37 1 0.526259 0.366623 0.352409
38 2 0.530542 0.408016 0.372341
39 3 0.537512 0.42786 0.348607
40 3 0.537027 0.401881 0.403628
41 2 0.516414 0.433489 0.383287
42 3 0.506934 0.419864 0.36329
43 3 0.51788 0.469629 0.375006
44 1 0.513607 0.428204 0.429928
50 3 0.48746 0.431728 0.50441
54 3 0.493113 0.47307 0.57357
49 3 0.507367 0.420607 0.506669
51 1 0.501171 0.488134 0.509524
52 2 0.502727 0.490006 0.556957
53 3 0.513274 0.47321 0.56748
58 1 0.4888 0.550066 0.587712
59 2 0.487072 0.596918 0.594948
60 3 0.486911 0.615036 0.562306
61 3 0.496461 0.610057 0.615647
62 2 0.472445 0.603991 0.619218
63 3 0.465543 0.572977 0.617141
64 3 0.46621 0.632255 0.603547
65 1 0.475826 0.61412 0.664721
66 2 0.462796 0.617561 0.69187
67 3 0.457385 0.584122 0.695364
68 3 0.454657 0.641374 0.676656
69 2 0.467607 0.634544 0.737286
70 3 0.479783 0.628372 0.742029
72 1 0.464473 0.681317 0.738792
55 2 0.503126 0.538848 0.570269
56 3 0.50576 0.55987 0.540424
57 3 0.511885 0.544236 0.596244
77 3 0.460995 0.75989 0.744158
3 5 0.56952 0.115768 0.944748
4 3 0.563858 0.100305 0.915302
5 3 0.570697 0.152454 0.938697
6 2 0.560171 0.108528 0.986749
7 3 0.558927 0.0720365 0.993763
8 3 0.548879 0.123629 0.982438
1 4 0.587417 0.104464 0.979936
2 6 0.58369 0.0963845 0.950374
71 3 0.461295 0.616719 0.764074
73 2 0.47025 0.702285 0.77799
74 3 0.482692 0.701751 0.777364
75 3 0.46627 0.684505 0.808581
76 2 0.464735 0.750129 0.77842
101 4 0.410661 0.922114 0.998412
78 3 0.473897 0.772982 0.789212
79 1 0.452605 0.752634 0.809247
80 2 0.445447 0.795232 0.809008
81 3 0.439703 0.800561 0.776317
82 3 0.453766 0.82251 0.814283
83 2 0.43411 0.795629 0.846592
84 3 0.431154 0.760555 0.855856
85 3 0.423814 0.81341 0.835465
86 1 0.440592 0.818293 0.883851
87 2 0.431453 0.816461 0.922918
88 3 0.430557 0.781202 0.934894
89 3 0.420052 0.829435 0.915421
90 2 0.43876 0.845245 0.95888
91 3 0.450457 0.853343 0.949065
92 3 0.43877 0.827249 0.991597
93 1 0.430479 0.885774 0.963401
94 2 0.437873 0.918287 0.99056
95 3 0.448975 0.926224 0.975656
97 5 0.428176 0.960173 0.992116
98 3 0.426525 0.972789 0.957312
ITEM: TIMESTEP
40
ITEM: NUMBER OF ATOMS
101
ITEM: BOX BOUNDS pp pp pp
-4.5000000000000000e+01 4.5000000000000000e+01
-1.5000000000000000e+01 1.5000000000000000e+01
-1.5000000000000000e+01 1.5000000000000000e+01
ITEM: ATOMS id type xs ys zs
9 1 0.567782 0.129393 0.0231209
10 2 0.559639 0.126005 0.0640937
11 3 0.559711 0.0904442 0.0755192
12 3 0.547906 0.137092 0.058367
13 2 0.567076 0.155873 0.0989167
14 3 0.578403 0.165874 0.0870688
15 3 0.568149 0.137421 0.131222
16 1 0.557908 0.19448 0.104935
17 2 0.564566 0.226682 0.134029
18 3 0.574598 0.241646 0.117767
19 3 0.568004 0.210608 0.166125
20 2 0.553165 0.262873 0.143309
21 3 0.544576 0.263175 0.116279
22 3 0.558798 0.296148 0.144501
23 1 0.54642 0.253472 0.185524
24 2 0.534359 0.283013 0.195514
25 3 0.52496 0.277011 0.171785
26 3 0.538039 0.318577 0.192624
27 2 0.529297 0.273589 0.242907
29 3 0.516888 0.2757 0.244913
100 7 0.414215 0.95077 0.0116084
96 3 0.439401 0.904794 0.0251958
99 3 0.433916 0.986557 0.0126994
28 3 0.532923 0.239349 0.253109
45 2 0.49941 0.445062 0.44293
46 3 0.49037 0.423811 0.428534
47 3 0.497958 0.480162 0.430936
48 2 0.498612 0.443906 0.49351
30 1 0.535859 0.306457 0.271378
31 2 0.533008 0.298108 0.317608
32 3 0.538959 0.267226 0.328647
33 3 0.520805 0.293784 0.323589
34 2 0.538651 0.337989 0.343844
35 3 0.547315 0.355992 0.323973
36 3 0.543682 0.326517 0.376011
37 1 0.526229 0.366546 0.352397
38 2 0.530541 0.40804 0.372195
39 3 0.537443 0.427757 0.348176
40 3 0.537111 0.401976 0.403339
41 2 0.516455 0.433559 0.383357
42 3 0.506948 0.420124 0.36333
43 3 0.517961 0.469721 0.375239
44 1 0.513658 0.42816 0.430053
50 3 0.487375 0.432025 0.504315
54 3 0.493224 0.472864 0.573569
49 3 0.507262 0.420569 0.506806
51 1 0.501177 0.488244 0.509426
52 2 0.502787 0.489996 0.556888
53 3 0.51338 0.473327 0.567209
58 1 0.488763 0.54991 0.587775
59 2 0.487043 0.596843 0.594849
60 3 0.486827 0.614767 0.562104
61 3 0.496463 0.610121 0.615339
62 2 0.472456 0.604115 0.619243
63 3 0.465464 0.573287 0.617065
64 3 0.466296 0.632648 0.603792
65 1 0.475861 0.614053 0.664825
66 2 0.462814 0.617376 0.69193
67 3 0.457469 0.583849 0.695527
68 3 0.454627 0.640981 0.676628
69 2 0.467536 0.634609 0.737403
70 3 0.479697 0.628367 0.742397
72 1 0.464428 0.681424 0.738776
55 2 0.503123 0.538773 0.570464
56 3 0.505809 0.559922 0.540753
57 3 0.511829 0.544061 0.596622
77 3 0.460962 0.760263 0.74457
3 5 0.569541 0.115621 0.944407
4 3 0.563765 0.0998569 0.91533
5 3 0.570722 0.152316 0.938399
6 2 0.560289 0.108351 0.986568
7 3 0.559073 0.071852 0.993572
8 3 0.548985 0.123395 0.982337
1 4 0.587415 0.103501 0.979367
2 6 0.583743 0.096336 0.949533
71 3 0.461163 0.616885 0.764134
73 2 0.470243 0.702363 0.777963
74 3 0.482684 0.701958 0.777003
75 3 0.466368 0.684426 0.808589
76 2 0.464704 0.750213 0.778746
101 4 0.410661 0.922492 0.999386
78 3 0.473874 0.772946 0.789729
79 1 0.45258 0.752656 0.80961
80 2 0.445423 0.795306 0.80927
81 3 0.439663 0.80049 0.776578
82 3 0.453766 0.822554 0.814347
83 2 0.434097 0.795983 0.846836
84 3 0.431118 0.76099 0.856347
85 3 0.423808 0.813734 0.835597
86 1 0.440571 0.818882 0.883992
87 2 0.431418 0.816785 0.923044
88 3 0.43055 0.781461 0.934871
89 3 0.420015 0.829766 0.915545
90 2 0.438698 0.84553 0.95909
91 3 0.450372 0.853983 0.949255
92 3 0.438769 0.827376 0.991733
93 1 0.430298 0.885898 0.963839
94 2 0.437755 0.918422 0.99078
95 3 0.448866 0.926274 0.97589
97 5 0.428151 0.960472 0.992334
98 3 0.426508 0.973084 0.957522
ITEM: TIMESTEP
50
ITEM: NUMBER OF ATOMS
101
ITEM: BOX BOUNDS pp pp pp
-4.5000000000000000e+01 4.5000000000000000e+01
-1.5000000000000000e+01 1.5000000000000000e+01
-1.5000000000000000e+01 1.5000000000000000e+01
ITEM: ATOMS id type xs ys zs
9 1 0.567988 0.12874 0.0226264
10 2 0.559756 0.125858 0.0634184
11 3 0.559746 0.0904255 0.0752112
12 3 0.548046 0.136991 0.0573944
13 2 0.567115 0.155911 0.0982148
14 3 0.578442 0.166019 0.0864906
15 3 0.568165 0.137506 0.130547
16 1 0.557961 0.194448 0.104304
17 2 0.564582 0.226429 0.133687
18 3 0.574617 0.241598 0.117645
19 3 0.56801 0.21015 0.165683
20 2 0.553157 0.262494 0.143174
21 3 0.544559 0.262813 0.116164
22 3 0.558747 0.295839 0.144474
23 1 0.546428 0.252903 0.185413
24 2 0.534421 0.282638 0.195361
25 3 0.525019 0.276562 0.171665
26 3 0.538138 0.31814 0.192174
27 2 0.529345 0.273593 0.242808
29 3 0.516943 0.276011 0.244778
100 7 0.414217 0.951398 0.012483
96 3 0.43922 0.905149 0.0258844
99 3 0.433961 0.987191 0.0128854
28 3 0.53288 0.239328 0.253217
45 2 0.499439 0.444865 0.44293
46 3 0.490455 0.423367 0.428588
47 3 0.497915 0.47985 0.430679
48 2 0.498577 0.443981 0.493497
30 1 0.535934 0.306514 0.271183
31 2 0.533098 0.298025 0.317424
32 3 0.539107 0.267211 0.328375
33 3 0.520901 0.293419 0.323325
34 2 0.538637 0.33786 0.343927
35 3 0.547356 0.35595 0.324357
36 3 0.543582 0.326243 0.37616
37 1 0.526205 0.366441 0.352349
38 2 0.530538 0.407957 0.372
39 3 0.53737 0.427579 0.347728
40 3 0.537216 0.402019 0.402955
41 2 0.516489 0.433602 0.383457
42 3 0.506943 0.420411 0.363435
43 3 0.518054 0.469772 0.375472
44 1 0.513726 0.428146 0.430157
50 3 0.4873 0.432353 0.504195
54 3 0.493343 0.472567 0.573553
49 3 0.50715 0.420537 0.507049
51 1 0.50118 0.48833 0.509363
52 2 0.502838 0.489985 0.556816
53 3 0.51348 0.473461 0.566909
58 1 0.488723 0.549759 0.587849
59 2 0.487019 0.596718 0.594787
60 3 0.486734 0.61445 0.56194
61 3 0.496487 0.610111 0.615005
62 2 0.472473 0.604258 0.61939
63 3 0.465366 0.573678 0.617083
64 3 0.466391 0.633042 0.604134
65 1 0.475889 0.614004 0.664988
66 2 0.462828 0.617249 0.692064
67 3 0.457552 0.583643 0.695811
68 3 0.454598 0.640598 0.676583
69 2 0.467443 0.634762 0.737538
70 3 0.479593 0.628557 0.742811
72 1 0.46434 0.68161 0.738799
55 2 0.503108 0.53869 0.570672
56 3 0.505854 0.560046 0.541159
57 3 0.511767 0.543845 0.596994
77 3 0.460871 0.760626 0.745097
3 5 0.569574 0.115153 0.943806
4 3 0.563697 0.0998574 0.914664
5 3 0.570796 0.151844 0.937932
6 2 0.560429 0.107787 0.986138
7 3 0.559263 0.071268 0.993091
8 3 0.549099 0.122762 0.982252
1 4 0.587501 0.102567 0.978456
2 6 0.583732 0.0955483 0.948701
71 3 0.461019 0.617113 0.764213
73 2 0.470192 0.70247 0.777998
74 3 0.48263 0.70217 0.776706
75 3 0.466423 0.684341 0.808631
76 2 0.464635 0.750288 0.779164
101 4 0.410572 0.923192 1.00036
78 3 0.473799 0.772976 0.790275
79 1 0.452546 0.752651 0.810146
80 2 0.445415 0.795384 0.809657
81 3 0.439699 0.80052 0.776881
82 3 0.453773 0.822598 0.814727
83 2 0.434064 0.796296 0.847149
84 3 0.431089 0.761362 0.85687
85 3 0.423776 0.813888 0.835674
86 1 0.440499 0.819501 0.884155
87 2 0.431373 0.81746 0.923174
88 3 0.43054 0.782116 0.934946
89 3 0.419964 0.830317 0.915585
90 2 0.43858 0.846146 0.959386
91 3 0.450226 0.854905 0.949541
92 3 0.438744 0.827663 0.991832
93 1 0.430091 0.886228 0.964618
94 2 0.437616 0.918726 0.991436
95 3 0.448751 0.926236 0.976527
97 5 0.428114 0.960963 0.992923
98 3 0.426447 0.97348 0.958103
ITEM: TIMESTEP
60
ITEM: NUMBER OF ATOMS
101
ITEM: BOX BOUNDS pp pp pp
-4.5000000000000000e+01 4.5000000000000000e+01
-1.5000000000000000e+01 1.5000000000000000e+01
-1.5000000000000000e+01 1.5000000000000000e+01
ITEM: ATOMS id type xs ys zs
9 1 0.568199 0.127461 0.0212434
10 2 0.559933 0.125581 0.0621611
11 3 0.55971 0.0902815 0.074397
12 3 0.548294 0.137239 0.0559182
13 2 0.567398 0.155706 0.0967351
14 3 0.5787 0.165853 0.0848107
15 3 0.56855 0.137382 0.129084
16 1 0.558182 0.194234 0.102952
17 2 0.564605 0.225861 0.133109
18 3 0.574681 0.241403 0.117658
19 3 0.567917 0.209132 0.164978
20 2 0.553108 0.261713 0.142789
21 3 0.544472 0.261882 0.115901
22 3 0.55866 0.295116 0.14397
23 1 0.546423 0.252255 0.185096
24 2 0.534501 0.282259 0.195131
25 3 0.525052 0.276389 0.171561
26 3 0.538289 0.317685 0.191911
27 2 0.529448 0.27343 0.242582
29 3 0.517047 0.275941 0.244597
100 7 0.414165 0.953105 0.0146949
96 3 0.43897 0.906121 0.0277256
99 3 0.433889 0.988725 0.0135317
28 3 0.532971 0.239163 0.253022
45 2 0.499472 0.444639 0.442924
46 3 0.490547 0.422886 0.428636
47 3 0.497859 0.47954 0.430544
48 2 0.49854 0.443973 0.493487
30 1 0.536096 0.30634 0.270913
31 2 0.533223 0.297831 0.317153
32 3 0.539266 0.267055 0.328044
33 3 0.521027 0.293029 0.322914
34 2 0.538657 0.337622 0.343863
35 3 0.547426 0.355736 0.324525
36 3 0.543531 0.325905 0.376148
37 1 0.526221 0.366201 0.352217
38 2 0.530563 0.407811 0.371703
39 3 0.537327 0.427378 0.347205
40 3 0.537322 0.401967 0.402515
41 2 0.516551 0.433562 0.383476
42 3 0.506983 0.420468 0.363491
43 3 0.518173 0.469716 0.37551
44 1 0.513805 0.428181 0.430191
50 3 0.487227 0.43254 0.504068
54 3 0.493456 0.472279 0.57365
49 3 0.50706 0.420442 0.507191
51 1 0.501178 0.488332 0.509384
52 2 0.502894 0.489929 0.556866
53 3 0.513587 0.473553 0.56673
58 1 0.488694 0.549672 0.588075
59 2 0.486983 0.596641 0.594902
60 3 0.486629 0.614242 0.561988
61 3 0.496464 0.610147 0.614989
62 2 0.472472 0.604463 0.619662
63 3 0.465291 0.574051 0.617217
64 3 0.466465 0.633465 0.604537
65 1 0.47589 0.613952 0.665333
66 2 0.462817 0.617257 0.692352
67 3 0.457573 0.583624 0.696195
68 3 0.454569 0.640458 0.676748
69 2 0.467328 0.634974 0.737808
70 3 0.479479 0.628951 0.743267
72 1 0.464149 0.681799 0.739073
55 2 0.503096 0.538564 0.570985
56 3 0.505891 0.560029 0.541596
57 3 0.511724 0.543587 0.597424
77 3 0.460732 0.760807 0.745571
3 5 0.569699 0.113935 0.942462
4 3 0.563723 0.0996451 0.912993
5 3 0.571185 0.150679 0.937549
6 2 0.560623 0.10624 0.984915
7 3 0.559513 0.0696768 0.991747
8 3 0.549259 0.120985 0.981075
1 4 0.587762 0.100928 0.975874
2 6 0.583759 0.0936018 0.946506
71 3 0.460892 0.617325 0.764456
73 2 0.47007 0.702664 0.778223
74 3 0.482508 0.702351 0.776797
75 3 0.466322 0.684528 0.808878
76 2 0.46453 0.750432 0.779588
101 4 0.410293 0.925344 1.00225
78 3 0.473732 0.773035 0.790575
79 1 0.452492 0.752791 0.810744
80 2 0.445434 0.795607 0.810479
81 3 0.439752 0.800955 0.777685
82 3 0.453853 0.822612 0.815696
83 2 0.434014 0.796782 0.847827
84 3 0.431144 0.761909 0.85802
85 3 0.423695 0.813904 0.835888
86 1 0.440257 0.820776 0.884629
87 2 0.431087 0.818813 0.923693
88 3 0.430173 0.783456 0.935376
89 3 0.419692 0.831828 0.916166
90 2 0.438406 0.847286 0.959913
91 3 0.449979 0.856345 0.949586
92 3 0.438784 0.828429 0.992152
93 1 0.429889 0.887314 0.966128
94 2 0.437423 0.919602 0.993209
95 3 0.448596 0.927046 0.978526
97 5 0.427981 0.962012 0.994395
98 3 0.426083 0.973648 0.959376
ITEM: TIMESTEP
70
ITEM: NUMBER OF ATOMS
101
ITEM: BOX BOUNDS pp pp pp
-4.5000000000000000e+01 4.5000000000000000e+01
-1.5000000000000000e+01 1.5000000000000000e+01
-1.5000000000000000e+01 1.5000000000000000e+01
ITEM: ATOMS id type xs ys zs
9 1 0.568571 0.125249 0.01912
10 2 0.56017 0.124953 0.0596893
11 3 0.55961 0.0899991 0.0727641
12 3 0.548669 0.137324 0.0527349
13 2 0.567797 0.155351 0.0937456
14 3 0.578963 0.165691 0.0809061
15 3 0.569304 0.136967 0.125916
16 1 0.558586 0.193772 0.100681
17 2 0.564691 0.224685 0.132202
18 3 0.574937 0.24058 0.118112
19 3 0.567712 0.207186 0.163929
20 2 0.553055 0.260306 0.14167
21 3 0.544382 0.259912 0.114865
22 3 0.558477 0.29393 0.142364
23 1 0.546435 0.251227 0.18418
24 2 0.534679 0.281753 0.194721
25 3 0.525152 0.276474 0.171274
26 3 0.538634 0.317029 0.191544
27 2 0.529665 0.272931 0.242303
29 3 0.517263 0.275345 0.244403
100 7 0.413995 0.955698 0.0185144
96 3 0.438369 0.907519 0.0304561
99 3 0.43392 0.990635 0.0146181
28 3 0.533193 0.238674 0.25276
45 2 0.499542 0.444453 0.442892
46 3 0.49067 0.422539 0.428587
47 3 0.49788 0.479293 0.430422
48 2 0.498561 0.443865 0.493534
30 1 0.53627 0.305866 0.270689
31 2 0.533321 0.297461 0.316909
32 3 0.539361 0.266724 0.327889
33 3 0.521128 0.292589 0.322654
34 2 0.538752 0.337333 0.343614
35 3 0.547536 0.355452 0.32434
36 3 0.543613 0.325662 0.375932
37 1 0.526288 0.365872 0.352003
38 2 0.53061 0.407574 0.371491
39 3 0.53736 0.42704 0.346893
40 3 0.537423 0.401743 0.402193
41 2 0.516607 0.433336 0.383318
42 3 0.507013 0.420192 0.363502
43 3 0.518213 0.469453 0.375199
44 1 0.513904 0.428183 0.43012
50 3 0.487241 0.432413 0.503961
54 3 0.493494 0.472078 0.573846
49 3 0.507061 0.420321 0.507306
51 1 0.501165 0.488197 0.50954
52 2 0.5029 0.489811 0.557016
53 3 0.51361 0.473524 0.566817
58 1 0.488679 0.549595 0.588475
59 2 0.486973 0.596603 0.595324
60 3 0.486631 0.614162 0.562413
61 3 0.496467 0.61007 0.615358
62 2 0.472458 0.604492 0.620061
63 3 0.465209 0.574243 0.617583
64 3 0.466485 0.633605 0.605072
65 1 0.475844 0.613923 0.665826
66 2 0.462733 0.617455 0.692737
67 3 0.457454 0.583869 0.696527
68 3 0.454511 0.640691 0.677051
69 2 0.467249 0.635136 0.738264
70 3 0.479409 0.629256 0.7437
72 1 0.463933 0.681875 0.73967
55 2 0.503077 0.538474 0.57132
56 3 0.505868 0.560067 0.542026
57 3 0.51169 0.543436 0.597791
77 3 0.460382 0.761022 0.746264
3 5 0.56998 0.111917 0.940262
4 3 0.563629 0.0991316 0.910829
5 3 0.571724 0.148673 0.93608
6 2 0.560992 0.103961 0.982845
7 3 0.560088 0.0673172 0.989724
8 3 0.549544 0.118163 0.979137
1 4 0.588494 0.0975599 0.971674
2 6 0.583884 0.0901896 0.943044
71 3 0.460864 0.617303 0.764877
73 2 0.469818 0.70282 0.778823
74 3 0.482253 0.702425 0.777436
75 3 0.466076 0.684682 0.809479
76 2 0.464302 0.750714 0.780186
101 4 0.409529 0.928654 1.00606
78 3 0.473559 0.773336 0.790715
79 1 0.452377 0.753431 0.81181
80 2 0.445434 0.796439 0.812038
81 3 0.439875 0.802428 0.779151
82 3 0.453922 0.823156 0.817814
83 2 0.433891 0.797477 0.84915
84 3 0.431303 0.762632 0.860126
85 3 0.423417 0.813359 0.83664
86 1 0.439829 0.822884 0.885512
87 2 0.430689 0.82158 0.924663
88 3 0.429453 0.786354 0.936441
89 3 0.419409 0.835465 0.917198
90 2 0.438177 0.849536 0.961012
91 3 0.449613 0.859375 0.950129
92 3 0.438884 0.829996 0.99278
93 1 0.429543 0.888946 0.968619
94 2 0.437052 0.921133 0.995873
95 3 0.448325 0.928409 0.981778
97 5 0.427681 0.963702 0.996817
98 3 0.425585 0.974717 0.961675
ITEM: TIMESTEP
80
ITEM: NUMBER OF ATOMS
101
ITEM: BOX BOUNDS pp pp pp
-4.5000000000000000e+01 4.5000000000000000e+01
-1.5000000000000000e+01 1.5000000000000000e+01
-1.5000000000000000e+01 1.5000000000000000e+01
ITEM: ATOMS id type xs ys zs
9 1 0.569177 0.122727 0.0164614
10 2 0.560504 0.124399 0.0565853
11 3 0.559507 0.0898892 0.070507
12 3 0.549166 0.137662 0.0486828
13 2 0.568271 0.155148 0.0900966
14 3 0.579204 0.166389 0.0761572
15 3 0.570243 0.136612 0.121985
16 1 0.558879 0.193004 0.0979126
17 2 0.564671 0.222849 0.130998
18 3 0.575117 0.238951 0.11858
19 3 0.56723 0.204296 0.162511
20 2 0.553005 0.25839 0.14015
21 3 0.544244 0.257245 0.113621
22 3 0.558348 0.292125 0.139927
23 1 0.546519 0.249874 0.183019
24 2 0.535016 0.281017 0.194215
25 3 0.525396 0.276689 0.170914
26 3 0.539236 0.316034 0.191357
27 2 0.530001 0.272102 0.241851
29 3 0.517591 0.274163 0.243753
100 7 0.41376 0.959095 0.0226156
96 3 0.437615 0.908992 0.0335047
99 3 0.433843 0.992881 0.0169331
28 3 0.533615 0.237938 0.252312
45 2 0.499663 0.444498 0.44296
46 3 0.490775 0.422679 0.428583
47 3 0.498016 0.479363 0.430536
48 2 0.498707 0.443739 0.493564
30 1 0.536446 0.30521 0.270376
31 2 0.533414 0.297104 0.316645
32 3 0.539381 0.266371 0.328016
33 3 0.5212 0.292516 0.322166
34 2 0.53886 0.337044 0.343192
35 3 0.547554 0.3553 0.323689
36 3 0.543809 0.325492 0.375441
37 1 0.52639 0.365527 0.351763
38 2 0.530673 0.407147 0.371448
39 3 0.537446 0.426836 0.347088
40 3 0.537432 0.40131 0.402259
41 2 0.516643 0.432826 0.383163
42 3 0.507044 0.419315 0.363604
43 3 0.518153 0.468877 0.374622
44 1 0.514006 0.428125 0.430046
50 3 0.48742 0.431938 0.503924
54 3 0.493352 0.472075 0.57389
49 3 0.507267 0.420363 0.507289
51 1 0.501161 0.488125 0.50966
52 2 0.5028 0.489715 0.557158
53 3 0.513474 0.473368 0.567179
58 1 0.488663 0.549491 0.588893
59 2 0.486976 0.59647 0.596056
60 3 0.486729 0.614271 0.563261
61 3 0.496445 0.609697 0.616347
62 2 0.472431 0.604301 0.620605
63 3 0.465229 0.573956 0.61809
64 3 0.466459 0.633264 0.60532
65 1 0.475763 0.613929 0.666347
66 2 0.462643 0.617825 0.693178
67 3 0.457231 0.584407 0.696879
68 3 0.454551 0.641384 0.677367
69 2 0.467177 0.635343 0.738728
70 3 0.479373 0.629895 0.74384
72 1 0.463709 0.682002 0.740501
55 2 0.503021 0.538357 0.571414
56 3 0.50576 0.55998 0.542102
57 3 0.51169 0.543352 0.597733
77 3 0.459769 0.760926 0.747242
3 5 0.570308 0.109227 0.937388
4 3 0.56364 0.0974947 0.908122