ITEM: TIMESTEP
0
ITEM: NUMBER OF ATOMS
101
ITEM: BOX BOUNDS pp pp pp
-3.3000000000000000e+01 3.3000000000000000e+01
-1.0000000000000000e+01 1.0000000000000000e+01
-1.0000000000000000e+01 1.0000000000000000e+01
ITEM: ATOMS id type xs ys zs
94 2 0.212573 0.487632 0.448014
96 3 0.219153 0.455779 0.408298
97 5 0.197533 0.447114 0.49035
98 3 0.186759 0.420377 0.45767
77 3 0.326746 0.411537 0.446007
73 2 0.350184 0.488013 0.442324
75 3 0.357589 0.456021 0.40427
76 2 0.334087 0.447765 0.48019
51 1 0.49986 0.49992 0.492896
52 2 0.485093 0.467459 0.452841
54 3 0.492448 0.427969 0.422507
56 3 0.462139 0.392801 0.475649
29 3 0.656211 0.476953 0.4155
30 1 0.635004 0.494777 0.490761
31 2 0.619887 0.454205 0.460781
32 3 0.612564 0.480914 0.418657
33 3 0.626958 0.408403 0.440147
9 1 0.771664 0.488045 0.49326
10 2 0.756343 0.450226 0.460852
11 3 0.750186 0.477854 0.417312
12 3 0.762981 0.403054 0.441812
14 3 0.732032 0.387927 0.499992
8 3 0.793647 0.469212 0.421012
95 3 0.205116 0.530719 0.423397
89 3 0.267106 0.612944 0.497989
90 2 0.243005 0.549504 0.459335
91 3 0.236032 0.596361 0.44083
92 3 0.249238 0.522631 0.415448
93 1 0.228036 0.510257 0.491816
69 2 0.379984 0.551001 0.461723
70 3 0.373015 0.597998 0.443539
71 3 0.387198 0.526265 0.418215
72 1 0.364784 0.509415 0.489798
74 3 0.343535 0.531465 0.41581
47 3 0.53742 0.60835 0.481534
48 2 0.514691 0.534271 0.45471
49 3 0.507374 0.574949 0.425888
50 3 0.521921 0.500013 0.418252
53 3 0.477993 0.503338 0.417682
24 2 0.665589 0.55741 0.484009
27 2 0.649521 0.518851 0.444296
28 3 0.642027 0.55267 0.408067
26 3 0.672843 0.595455 0.451654
3 5 0.802724 0.548125 0.491539
5 3 0.813278 0.576134 0.459151
6 2 0.786866 0.511521 0.448904
7 3 0.780145 0.546145 0.411853
99 3 0.205443 0.40949 0.52151
100 7 0.184881 0.487181 0.529845
79 1 0.319361 0.493785 0.503745
80 2 0.304695 0.464023 0.546237
81 3 0.298116 0.418752 0.522755
82 3 0.312062 0.448202 0.593416
59 2 0.439787 0.463718 0.560443
60 3 0.432486 0.41722 0.542297
78 3 0.340721 0.418942 0.522168
55 2 0.469508 0.436089 0.500221
57 3 0.4766 0.417645 0.546955
58 1 0.454774 0.485714 0.514582
61 3 0.446958 0.452203 0.609189
34 2 0.604643 0.43554 0.515513
35 3 0.597188 0.387529 0.502929
36 3 0.612042 0.429231 0.56487
37 1 0.58993 0.487199 0.518164
38 2 0.575271 0.477294 0.569099
39 3 0.568077 0.427455 0.564114
40 3 0.582753 0.479026 0.618658
13 2 0.739949 0.435003 0.512985
15 3 0.746408 0.428649 0.563756
16 1 0.725921 0.488736 0.511738
17 2 0.710945 0.48416 0.562455
18 3 0.704078 0.433582 0.563535
19 3 0.718147 0.49274 0.611737
1 4 0.807338 0.478915 0.555744
101 4 0.193299 0.511135 0.559958
83 2 0.288543 0.517172 0.560727
84 3 0.28129 0.507284 0.609676
85 3 0.295121 0.568131 0.562871
86 1 0.273697 0.5125 0.509604
87 2 0.259421 0.565501 0.511163
88 3 0.253021 0.57159 0.562046
62 2 0.424492 0.520785 0.568795
63 3 0.416959 0.516922 0.618149
64 3 0.431879 0.570501 0.566337
65 1 0.40984 0.514068 0.517306
66 2 0.39533 0.566424 0.517154
67 3 0.387975 0.570784 0.566792
68 3 0.40298 0.614626 0.506754
42 3 0.552461 0.542677 0.612587
44 1 0.544937 0.513902 0.516203
45 2 0.530107 0.563765 0.503862
46 3 0.52288 0.579793 0.551253
25 3 0.658939 0.583973 0.527428
41 2 0.559762 0.534067 0.563457
43 3 0.566914 0.581759 0.547964
20 2 0.695136 0.538574 0.548553
21 3 0.687794 0.554101 0.595886
22 3 0.702008 0.5838 0.525923
23 1 0.680395 0.510527 0.505185
2 6 0.815563 0.504704 0.526589
4 3 0.795511 0.584194 0.526183
ITEM: TIMESTEP
10
ITEM: NUMBER OF ATOMS
101
ITEM: BOX BOUNDS pp pp pp
-3.3000000000000000e+01 3.3000000000000000e+01
-1.0000000000000000e+01 1.0000000000000000e+01
-1.0000000000000000e+01 1.0000000000000000e+01
ITEM: ATOMS id type xs ys zs
94 2 0.212748 0.487081 0.44776
96 3 0.219339 0.455279 0.407464
97 5 0.197229 0.447336 0.488501
98 3 0.186334 0.419961 0.456227
77 3 0.326702 0.410924 0.444541
73 2 0.350426 0.486445 0.442378
75 3 0.357701 0.45447 0.403924
76 2 0.333739 0.447905 0.478826
51 1 0.49986 0.49992 0.492912
52 2 0.485209 0.466 0.452459
54 3 0.492862 0.427609 0.421454
56 3 0.46172 0.391661 0.475784
29 3 0.65628 0.478427 0.416346
30 1 0.634911 0.494877 0.491189
31 2 0.61999 0.452717 0.460845
32 3 0.612895 0.480709 0.418533
33 3 0.627368 0.407769 0.439206
9 1 0.771512 0.488254 0.493633
10 2 0.756446 0.448601 0.461201
11 3 0.750648 0.477187 0.417394
12 3 0.763312 0.402047 0.441416
14 3 0.731805 0.386611 0.499454
8 3 0.793622 0.469793 0.420876
95 3 0.205143 0.530147 0.423203
89 3 0.267328 0.614311 0.49749
90 2 0.242899 0.55112 0.459707
91 3 0.235675 0.59732 0.440474
92 3 0.248779 0.523304 0.41553
93 1 0.228205 0.509997 0.492154
69 2 0.379887 0.552486 0.461864
70 3 0.37261 0.598687 0.442622
71 3 0.386867 0.526478 0.418106
72 1 0.364879 0.509288 0.490218
74 3 0.34347 0.529967 0.416576
47 3 0.537836 0.609491 0.481729
48 2 0.514573 0.535744 0.4544
49 3 0.506958 0.575342 0.42484
50 3 0.521569 0.500204 0.41809
53 3 0.478351 0.503157 0.417507
24 2 0.665934 0.557353 0.482649
27 2 0.649276 0.520418 0.444439
28 3 0.641906 0.554197 0.407767
26 3 0.672899 0.596106 0.450213
3 5 0.803005 0.547993 0.489635
5 3 0.813689 0.576606 0.45766
6 2 0.786692 0.512108 0.448698
7 3 0.779967 0.546748 0.411076
99 3 0.204748 0.411439 0.522697
100 7 0.185076 0.484507 0.532668
79 1 0.3192 0.494521 0.503775
80 2 0.304774 0.46473 0.547813
81 3 0.298565 0.419087 0.523218
82 3 0.312368 0.448028 0.59438
59 2 0.439904 0.463962 0.561893
60 3 0.432827 0.417117 0.542665
78 3 0.340838 0.419518 0.520543
55 2 0.469385 0.435194 0.499049
57 3 0.476256 0.417345 0.546767
58 1 0.454769 0.485781 0.514541
61 3 0.44737 0.451316 0.609952
34 2 0.604498 0.434344 0.514612
35 3 0.596761 0.386405 0.503299
36 3 0.611672 0.428828 0.564761
37 1 0.589911 0.48719 0.51808
38 2 0.575392 0.47794 0.570457
39 3 0.568437 0.427442 0.564338
40 3 0.58317 0.478422 0.619598
13 2 0.739679 0.43409 0.511862
15 3 0.746466 0.428628 0.56258
16 1 0.72593 0.48895 0.511439
17 2 0.711279 0.485006 0.563507
18 3 0.703921 0.434902 0.564103
19 3 0.71821 0.493131 0.613411
1 4 0.807195 0.478981 0.555486
101 4 0.193439 0.511162 0.559624
83 2 0.288217 0.516286 0.561766
84 3 0.281235 0.506852 0.611364
85 3 0.295273 0.566838 0.563391
86 1 0.273698 0.512301 0.509292
87 2 0.259689 0.566451 0.510042
88 3 0.252964 0.571583 0.560884
62 2 0.424365 0.520078 0.57011
63 3 0.416543 0.517482 0.619107
64 3 0.431517 0.570523 0.566567
65 1 0.409855 0.514081 0.517231
66 2 0.395478 0.567663 0.516315
67 3 0.388351 0.571171 0.566713
68 3 0.403407 0.615728 0.507177
42 3 0.552045 0.543514 0.613401
44 1 0.544942 0.51383 0.516162
45 2 0.530232 0.564713 0.502736
46 3 0.523228 0.580113 0.551094
25 3 0.658814 0.583513 0.525761
41 2 0.559643 0.533747 0.564898
43 3 0.566565 0.58184 0.548315
20 2 0.695053 0.537833 0.550113
21 3 0.687473 0.554236 0.596808
22 3 0.701572 0.583469 0.5264
23 1 0.680552 0.509794 0.505207
2 6 0.81541 0.507132 0.529574
4 3 0.796196 0.58214 0.52709
ITEM: TIMESTEP
20
ITEM: NUMBER OF ATOMS
101
ITEM: BOX BOUNDS pp pp pp
-3.3000000000000000e+01 3.3000000000000000e+01
-1.0000000000000000e+01 1.0000000000000000e+01
-1.0000000000000000e+01 1.0000000000000000e+01
ITEM: ATOMS id type xs ys zs
94 2 0.212546 0.486081 0.448143
96 3 0.219228 0.453088 0.409113
97 5 0.196806 0.446112 0.487983
98 3 0.185212 0.421864 0.455528
77 3 0.325997 0.412245 0.441062
73 2 0.350678 0.484207 0.441176
75 3 0.358425 0.450596 0.405137
76 2 0.333507 0.446623 0.47691
51 1 0.499862 0.49992 0.492426
52 2 0.485488 0.46383 0.452028
54 3 0.493673 0.424536 0.423171
56 3 0.460833 0.392339 0.472229
29 3 0.655658 0.482044 0.411978
30 1 0.634942 0.494793 0.490946
31 2 0.62027 0.450619 0.461252
32 3 0.613593 0.476177 0.416935
33 3 0.628296 0.405495 0.441994
9 1 0.77173 0.487468 0.493748
10 2 0.756946 0.445918 0.460924
11 3 0.75161 0.471455 0.414643
12 3 0.76447 0.398845 0.444394
14 3 0.731152 0.386253 0.495431
8 3 0.793869 0.4716 0.419795
95 3 0.204908 0.52839 0.422179
89 3 0.267957 0.614702 0.493611
90 2 0.242394 0.553765 0.459509
91 3 0.234488 0.600422 0.443717
92 3 0.247794 0.529189 0.412792
93 1 0.228024 0.51061 0.492271
69 2 0.379619 0.554566 0.462377
70 3 0.371704 0.600814 0.445485
71 3 0.386193 0.531049 0.416775
72 1 0.364851 0.50939 0.489989
74 3 0.344101 0.526529 0.411979
47 3 0.538745 0.608973 0.478169
48 2 0.514293 0.537936 0.454068
49 3 0.506135 0.578323 0.426685
50 3 0.520945 0.504485 0.415299
53 3 0.478982 0.499001 0.414533
24 2 0.666164 0.558778 0.480754
27 2 0.649028 0.522691 0.44334
28 3 0.64118 0.557906 0.409115
26 3 0.673622 0.594928 0.446561
3 5 0.803442 0.549164 0.489074
5 3 0.814812 0.574529 0.456613
6 2 0.786912 0.513024 0.449073
7 3 0.780091 0.548795 0.412851
99 3 0.203973 0.406914 0.5199
100 7 0.185223 0.483721 0.533067
79 1 0.319365 0.494129 0.504087
80 2 0.305281 0.464629 0.550322
81 3 0.299462 0.417011 0.528817
82 3 0.313627 0.451207 0.596811
59 2 0.440198 0.464259 0.564066
60 3 0.433393 0.415698 0.548112
78 3 0.340284 0.415072 0.517019
55 2 0.469099 0.43376 0.497315
57 3 0.475646 0.412413 0.544145
58 1 0.454771 0.485122 0.514755
61 3 0.448287 0.454366 0.611806
34 2 0.604116 0.432219 0.513171
35 3 0.595803 0.385864 0.49934
36 3 0.61087 0.422975 0.563511
37 1 0.589855 0.48649 0.518322
38 2 0.575632 0.47889 0.572311
39 3 0.568988 0.427729 0.569628
40 3 0.584024 0.481772 0.620542
13 2 0.73948 0.432207 0.509736
15 3 0.746159 0.423528 0.560309
16 1 0.725857 0.488528 0.511716
17 2 0.711368 0.486647 0.565908
18 3 0.704189 0.436267 0.569988
19 3 0.718784 0.496982 0.614759
1 4 0.806771 0.479981 0.555307
101 4 0.193833 0.510548 0.55901
83 2 0.288137 0.514611 0.564108
84 3 0.280687 0.502937 0.612607
85 3 0.295009 0.565366 0.569222
86 1 0.273778 0.512727 0.509553
87 2 0.259877 0.568302 0.507996
88 3 0.253244 0.576536 0.558706
62 2 0.424119 0.519059 0.571909
63 3 0.415664 0.514107 0.619865
64 3 0.430956 0.570008 0.57187
65 1 0.40992 0.514808 0.517495
66 2 0.39587 0.56983 0.515013
67 3 0.389166 0.577015 0.565754
68 3 0.404347 0.616445 0.503272
42 3 0.551146 0.540357 0.615097
44 1 0.544928 0.514464 0.516461
45 2 0.530515 0.566227 0.501091
46 3 0.523833 0.585213 0.548724
25 3 0.659354 0.588299 0.522326
41 2 0.559343 0.533343 0.567042
43 3 0.56598 0.582959 0.553798
20 2 0.69454 0.537937 0.552688
21 3 0.686189 0.551072 0.599262
22 3 0.70067 0.585542 0.532124
23 1 0.680374 0.510233 0.505638
2 6 0.815265 0.50786 0.530059
4 3 0.796989 0.586782 0.524377
ITEM: TIMESTEP
30
ITEM: NUMBER OF ATOMS
101
ITEM: BOX BOUNDS pp pp pp
-3.3000000000000000e+01 3.3000000000000000e+01
-1.0000000000000000e+01 1.0000000000000000e+01
-1.0000000000000000e+01 1.0000000000000000e+01
ITEM: ATOMS id type xs ys zs
94 2 0.212675 0.485725 0.447712
96 3 0.219452 0.45283 0.409048
97 5 0.196853 0.446404 0.487781
98 3 0.185169 0.42335 0.455023
77 3 0.325789 0.41385 0.439338
73 2 0.350874 0.483604 0.441843
75 3 0.35888 0.449016 0.407192
76 2 0.33338 0.44676 0.476389
51 1 0.499861 0.499918 0.493023
52 2 0.485619 0.463438 0.452239
54 3 0.494093 0.424075 0.424952
56 3 0.460585 0.393048 0.470668
29 3 0.655215 0.483502 0.411242
30 1 0.634816 0.494921 0.49149
31 2 0.620392 0.450113 0.461201
32 3 0.613902 0.474115 0.415864
33 3 0.628687 0.40516 0.443606
9 1 0.771535 0.488522 0.493995
10 2 0.757011 0.445588 0.46193
11 3 0.751889 0.469658 0.414802
12 3 0.764757 0.398602 0.4471
14 3 0.730983 0.387287 0.493045
8 3 0.793599 0.472057 0.418813
95 3 0.205166 0.527983 0.421153
89 3 0.268111 0.613706 0.491344
90 2 0.242318 0.554091 0.460588
91 3 0.234187 0.600619 0.446571
92 3 0.247494 0.531023 0.413032
93 1 0.228223 0.509492 0.492453
69 2 0.379507 0.55505 0.462349
70 3 0.371324 0.601082 0.447101
71 3 0.38589 0.53314 0.415813
72 1 0.364972 0.509255 0.490535
74 3 0.344541 0.52504 0.411147
47 3 0.538999 0.60835 0.47658
48 2 0.514157 0.538332 0.454285
49 3 0.505708 0.57872 0.428466
50 3 0.520594 0.506054 0.41426
53 3 0.479335 0.497495 0.413453
24 2 0.666295 0.558653 0.480214
27 2 0.648835 0.523227 0.444027
28 3 0.640739 0.55935 0.411211
26 3 0.673834 0.593343 0.444701
3 5 0.803397 0.548863 0.488847
5 3 0.814849 0.572975 0.455953
6 2 0.786782 0.513355 0.448712
7 3 0.779855 0.549029 0.41292
99 3 0.203801 0.40631 0.518546
100 7 0.185421 0.483404 0.533857
79 1 0.319304 0.494418 0.503839
80 2 0.305356 0.465355 0.550862
81 3 0.299832 0.416561 0.531093
82 3 0.313775 0.453506 0.597601
59 2 0.440368 0.46485 0.564643
60 3 0.433841 0.415856 0.549756
78 3 0.339889 0.414139 0.515706
55 2 0.468939 0.433735 0.496534
57 3 0.475211 0.411227 0.542936
58 1 0.454767 0.485582 0.514552
61 3 0.44858 0.455931 0.612288
34 2 0.603943 0.432263 0.512336
35 3 0.595462 0.386822 0.497644
36 3 0.610499 0.421501 0.562468
37 1 0.589862 0.487043 0.5181
38 2 0.575761 0.4793 0.572702
39 3 0.569376 0.427845 0.571492
40 3 0.584351 0.483333 0.620253
13 2 0.73931 0.43246 0.509874
15 3 0.745308 0.421785 0.560809
16 1 0.725894 0.489139 0.511131
17 2 0.711595 0.48687 0.565336
18 3 0.704902 0.436149 0.570933
19 3 0.719102 0.499378 0.613435
1 4 0.806442 0.480477 0.556009
101 4 0.194171 0.510192 0.559487
83 2 0.287917 0.51437 0.5635
84 3 0.280394 0.500527 0.611203
85 3 0.294298 0.565404 0.570134
86 1 0.273742 0.51213 0.508955
87 2 0.260038 0.568047 0.508215
88 3 0.254087 0.578262 0.559299
62 2 0.423988 0.518639 0.572295
63 3 0.415332 0.512577 0.619498
64 3 0.430573 0.569815 0.573752
65 1 0.40992 0.514278 0.517234
66 2 0.396033 0.569824 0.514167
67 3 0.389545 0.578479 0.564786
68 3 0.40468 0.615561 0.50156
42 3 0.550867 0.53878 0.615493
44 1 0.544927 0.514009 0.516251
45 2 0.530681 0.566305 0.500313
46 3 0.524261 0.586484 0.547565
25 3 0.659751 0.589341 0.520996
41 2 0.559178 0.532718 0.567586
43 3 0.565529 0.582695 0.555396
20 2 0.694464 0.537207 0.553279
21 3 0.686042 0.548772 0.600088
22 3 0.700303 0.585973 0.534466
23 1 0.680432 0.509958 0.505441
2 6 0.815081 0.50818 0.530955
4 3 0.797159 0.5875 0.52294
ITEM: TIMESTEP
40
ITEM: NUMBER OF ATOMS
101
ITEM: BOX BOUNDS pp pp pp
-3.3000000000000000e+01 3.3000000000000000e+01
-1.0000000000000000e+01 1.0000000000000000e+01
-1.0000000000000000e+01 1.0000000000000000e+01
ITEM: ATOMS id type xs ys zs
94 2 0.212969 0.485516 0.447976
96 3 0.219704 0.452705 0.409
97 5 0.196951 0.446627 0.487427
98 3 0.185262 0.424265 0.454362
77 3 0.325695 0.414804 0.438949
73 2 0.351039 0.483326 0.442162
75 3 0.359053 0.448101 0.408289
76 2 0.333315 0.447293 0.476248
51 1 0.499859 0.499923 0.493552
52 2 0.485757 0.463266 0.452568
54 3 0.494297 0.423546 0.425866
56 3 0.460357 0.394093 0.470104
29 3 0.654758 0.483773 0.410912
30 1 0.634765 0.495082 0.492051
31 2 0.620479 0.450076 0.461573
32 3 0.614182 0.473951 0.415866
33 3 0.628875 0.40503 0.444658
9 1 0.771292 0.489481 0.494435
10 2 0.75703 0.445648 0.462399
11 3 0.752113 0.468969 0.414648
12 3 0.76499 0.398664 0.448929
14 3 0.730598 0.388077 0.492252
8 3 0.793069 0.471728 0.419602
95 3 0.205694 0.528282 0.421866
89 3 0.268472 0.612967 0.490646
90 2 0.242289 0.554049 0.461093
91 3 0.233948 0.600554 0.448493
92 3 0.247256 0.531783 0.412899
93 1 0.228459 0.508557 0.49285
69 2 0.379418 0.555069 0.462734
70 3 0.371144 0.601162 0.448143
71 3 0.385613 0.533285 0.415845
72 1 0.36502 0.50908 0.491091
74 3 0.345002 0.524724 0.410762
47 3 0.539234 0.607343 0.475966
48 2 0.514019 0.538506 0.454615
49 3 0.505502 0.579236 0.429394
50 3 0.520249 0.506207 0.414295
53 3 0.479673 0.497351 0.413494
24 2 0.666368 0.558093 0.480056
27 2 0.648677 0.523455 0.444366
28 3 0.640579 0.560164 0.412333
26 3 0.67395 0.592328 0.444265
3 5 0.803287 0.54865 0.488474
5 3 0.814743 0.572022 0.455223
6 2 0.786486 0.513567 0.449002
7 3 0.779611 0.549157 0.412838
99 3 0.203807 0.406372 0.518018
100 7 0.185741 0.483931 0.533779
79 1 0.319314 0.495139 0.503579
80 2 0.305445 0.465841 0.550889
81 3 0.300172 0.41678 0.531263
82 3 0.313993 0.455075 0.597457
59 2 0.44047 0.465227 0.564535
60 3 0.434118 0.415811 0.550072
78 3 0.339457 0.413847 0.515921
55 2 0.468854 0.434139 0.496353
57 3 0.474948 0.4111 0.542777
58 1 0.454784 0.486249 0.514322
61 3 0.448801 0.457058 0.612047
34 2 0.60381 0.432453 0.512019
35 3 0.595201 0.387314 0.496614
36 3 0.610143 0.421271 0.562262
37 1 0.589865 0.487573 0.517706
38 2 0.575885 0.479676 0.572506
39 3 0.569689 0.427971 0.571436
40 3 0.584562 0.484298 0.619878
13 2 0.739102 0.432834 0.509435
15 3 0.744894 0.421949 0.560505
16 1 0.725817 0.48969 0.510419
17 2 0.711774 0.487335 0.565188
18 3 0.705266 0.436411 0.571096
19 3 0.719512 0.499903 0.612888
1 4 0.805941 0.481371 0.55672
101 4 0.194678 0.509383 0.559959
83 2 0.287748 0.513886 0.563327
84 3 0.28 0.499957 0.610627
85 3 0.29394 0.565106 0.570283
86 1 0.273825 0.511603 0.508228
87 2 0.260236 0.567669 0.507826
88 3 0.254485 0.578028 0.559055
62 2 0.423862 0.518284 0.572087
63 3 0.415117 0.511637 0.619074
64 3 0.430259 0.569709 0.573698
65 1 0.409919 0.513767 0.516815
66 2 0.39617 0.569637 0.513839
67 3 0.389901 0.578682 0.564598
68 3 0.404937 0.615111 0.500528
42 3 0.550655 0.537682 0.615176
44 1 0.544912 0.513357 0.51598
45 2 0.53077 0.565931 0.500117
46 3 0.524528 0.586641 0.547415
25 3 0.66019 0.589637 0.521195
41 2 0.559081 0.532348 0.567445
43 3 0.565256 0.582713 0.555678
20 2 0.694378 0.536712 0.553321
21 3 0.68582 0.547195 0.599938
22 3 0.699965 0.585768 0.534654
23 1 0.680421 0.509213 0.505216
2 6 0.814746 0.507702 0.530932
4 3 0.797147 0.587526 0.522337
ITEM: TIMESTEP
47
ITEM: NUMBER OF ATOMS
101
ITEM: BOX BOUNDS pp pp pp
-3.3000000000000000e+01 3.3000000000000000e+01
-1.0000000000000000e+01 1.0000000000000000e+01
-1.0000000000000000e+01 1.0000000000000000e+01
ITEM: ATOMS id type xs ys zs
94 2 0.213075 0.4854 0.448044
96 3 0.219792 0.45272 0.409037
97 5 0.197042 0.44661 0.487446
98 3 0.185291 0.424663 0.454266
77 3 0.325629 0.414986 0.438961
73 2 0.351065 0.48327 0.442267
75 3 0.35908 0.447809 0.408673
76 2 0.333287 0.447443 0.476234
51 1 0.499858 0.499929 0.493711
52 2 0.485749 0.46332 0.452689
54 3 0.494313 0.423609 0.426107
56 3 0.460303 0.394204 0.470013
29 3 0.654711 0.483939 0.410905
30 1 0.63479 0.49516 0.492242
31 2 0.620492 0.450171 0.461762
32 3 0.614248 0.474019 0.415957
33 3 0.628896 0.405131 0.444856
9 1 0.771116 0.489892 0.494289
10 2 0.756967 0.445614 0.462289
11 3 0.752047 0.468408 0.414243
12 3 0.765038 0.39857 0.449347
14 3 0.730533 0.388109 0.49203
8 3 0.792927 0.471562 0.419839
95 3 0.205838 0.528423 0.422085
89 3 0.268532 0.612957 0.490487
90 2 0.24235 0.55411 0.460984
91 3 0.233901 0.600668 0.448929
92 3 0.247315 0.532387 0.412498
93 1 0.22863 0.508196 0.492686
69 2 0.379406 0.554965 0.462916
70 3 0.371124 0.601047 0.448327
71 3 0.385549 0.533208 0.415935
72 1 0.364995 0.508993 0.491277
74 3 0.345055 0.524534 0.410726
47 3 0.53929 0.607245 0.475867
48 2 0.514027 0.538456 0.454734
49 3 0.505487 0.579177 0.429633
50 3 0.520227 0.506304 0.414269
53 3 0.479695 0.497262 0.413461
24 2 0.666399 0.557924 0.480043
27 2 0.648656 0.52349 0.444479
28 3 0.640562 0.560418 0.412718
26 3 0.674027 0.592108 0.444272
3 5 0.803195 0.548674 0.48849
5 3 0.814713 0.571626 0.455099
6 2 0.786381 0.513686 0.44907
7 3 0.779532 0.549137 0.412839
99 3 0.203786 0.405899 0.518104
100 7 0.185884 0.484227 0.533679
79 1 0.319321 0.495325 0.503567
80 2 0.305513 0.465889 0.55087
81 3 0.300256 0.416805 0.531346
82 3 0.314075 0.455249 0.597489
59 2 0.440517 0.465304 0.564457
60 3 0.434205 0.415815 0.549979
78 3 0.339444 0.414181 0.515885
55 2 0.468813 0.434218 0.49638
57 3 0.474874 0.411146 0.542843
58 1 0.454795 0.486393 0.514278
61 3 0.448849 0.457266 0.612036
34 2 0.603782 0.432516 0.512006
35 3 0.595137 0.387504 0.496403
36 3 0.610082 0.421075 0.562329
37 1 0.589845 0.487663 0.51759
38 2 0.575885 0.479716 0.572323
39 3 0.569727 0.427988 0.571402
40 3 0.584598 0.484439 0.61957
13 2 0.739022 0.43289 0.509175
15 3 0.744881 0.422075 0.560174
16 1 0.725735 0.489736 0.510229
17 2 0.711729 0.487355 0.565156
18 3 0.705242 0.436395 0.571308
19 3 0.719446 0.500305 0.612783
1 4 0.805737 0.481775 0.557143
101 4 0.194866 0.509024 0.560315
83 2 0.287794 0.513864 0.563289
84 3 0.28007 0.499559 0.610515
85 3 0.293968 0.565111 0.57049
86 1 0.273908 0.511568 0.508032
87 2 0.260312 0.567614 0.507578
88 3 0.254489 0.577846 0.55874
62 2 0.423865 0.518251 0.571909
63 3 0.415079 0.511512 0.618765
64 3 0.430218 0.569698 0.573663
65 1 0.409937 0.513678 0.516701
66 2 0.3962 0.569567 0.513834
67 3 0.389961 0.578872 0.564677
68 3 0.405 0.614925 0.500312
42 3 0.550608 0.537486 0.615144
44 1 0.544904 0.513221 0.515921
45 2 0.530809 0.565858 0.500132
46 3 0.524607 0.586601 0.547482
25 3 0.660208 0.589305 0.521143
41 2 0.559034 0.532276 0.567356
43 3 0.565173 0.582714 0.555574
20 2 0.694309 0.536653 0.553311
21 3 0.685741 0.547018 0.599982
22 3 0.699877 0.585725 0.534726
23 1 0.680411 0.509004 0.505226
2 6 0.814588 0.507415 0.530832
4 3 0.797168 0.58799 0.522423
ITEM: TIMESTEP
0
ITEM: NUMBER OF ATOMS
101
ITEM: BOX BOUNDS pp pp pp
-3.3000000000000000e+01 3.3000000000000000e+01
-1.0000000000000000e+01 1.0000000000000000e+01
-1.0000000000000000e+01 1.0000000000000000e+01
ITEM: ATOMS id type xs ys zs
94 2 0.213075 0.4854 0.448044
96 3 0.219792 0.45272 0.409037
97 5 0.197042 0.44661 0.487446
98 3 0.185291 0.424663 0.454266
77 3 0.325629 0.414986 0.438961
76 2 0.333287 0.447443 0.476234
73 2 0.351065 0.48327 0.442267
75 3 0.35908 0.447809 0.408673
51 1 0.499858 0.499929 0.493711
52 2 0.485749 0.46332 0.452689
54 3 0.494313 0.423609 0.426107
56 3 0.460303 0.394204 0.470013
53 3 0.479695 0.497262 0.413461
55 2 0.468813 0.434218 0.49638
29 3 0.654711 0.483939 0.410905
30 1 0.63479 0.49516 0.492242
31 2 0.620492 0.450171 0.461762
32 3 0.614248 0.474019 0.415957
33 3 0.628896 0.405131 0.444856
35 3 0.595137 0.387504 0.496403
9 1 0.771116 0.489892 0.494289
10 2 0.756967 0.445614 0.462289
11 3 0.752047 0.468408 0.414243
12 3 0.765038 0.39857 0.449347
14 3 0.730533 0.388109 0.49203
8 3 0.792927 0.471562 0.419839
95 3 0.205838 0.528423 0.422085
89 3 0.268532 0.612957 0.490487
90 2 0.24235 0.55411 0.460984
91 3 0.233901 0.600668 0.448929
92 3 0.247315 0.532387 0.412498
93 1 0.22863 0.508196 0.492686
69 2 0.379406 0.554965 0.462916
70 3 0.371124 0.601047 0.448327
71 3 0.385549 0.533208 0.415935
72 1 0.364995 0.508993 0.491277
74 3 0.345055 0.524534 0.410726
47 3 0.53929 0.607245 0.475867
48 2 0.514027 0.538456 0.454734
49 3 0.505487 0.579177 0.429633
50 3 0.520227 0.506304 0.414269
24 2 0.666399 0.557924 0.480043
27 2 0.648656 0.52349 0.444479
28 3 0.640562 0.560418 0.412718
26 3 0.674027 0.592108 0.444272
3 5 0.803195 0.548674 0.48849
5 3 0.814713 0.571626 0.455099
6 2 0.786381 0.513686 0.44907
7 3 0.779532 0.549137 0.412839
99 3 0.203786 0.405899 0.518104
100 7 0.185884 0.484227 0.533679
79 1 0.319321 0.495325 0.503567
80 2 0.305513 0.465889 0.55087
81 3 0.300256 0.416805 0.531346
82 3 0.314075 0.455249 0.597489
84 3 0.28007 0.499559 0.610515
59 2 0.440517 0.465304 0.564457
60 3 0.434205 0.415815 0.549979
78 3 0.339444 0.414181 0.515885
57 3 0.474874 0.411146 0.542843
58 1 0.454795 0.486393 0.514278
61 3 0.448849 0.457266 0.612036
34 2 0.603782 0.432516 0.512006
36 3 0.610082 0.421075 0.562329
37 1 0.589845 0.487663 0.51759
38 2 0.575885 0.479716 0.572323
39 3 0.569727 0.427988 0.571402
40 3 0.584598 0.484439 0.61957
13 2 0.739022 0.43289 0.509175
15 3 0.744881 0.422075 0.560174
16 1 0.725735 0.489736 0.510229
17 2 0.711729 0.487355 0.565156
18 3 0.705242 0.436395 0.571308
1 4 0.805737 0.481775 0.557143
101 4 0.194866 0.509024 0.560315
83 2 0.287794 0.513864 0.563289
85 3 0.293968 0.565111 0.57049
86 1 0.273908 0.511568 0.508032
87 2 0.260312 0.567614 0.507578
88 3 0.254489 0.577846 0.55874
62 2 0.423865 0.518251 0.571909
63 3 0.415079 0.511512 0.618765
64 3 0.430218 0.569698 0.573663
65 1 0.409937 0.513678 0.516701
66 2 0.3962 0.569567 0.513834
67 3 0.389961 0.578872 0.564677
68 3 0.405 0.614925 0.500312
42 3 0.550608 0.537486 0.615144
44 1 0.544904 0.513221 0.515921
45 2 0.530809 0.565858 0.500132
46 3 0.524607 0.586601 0.547482
25 3 0.660208 0.589305 0.521143
41 2 0.559034 0.532276 0.567356
43 3 0.565173 0.582714 0.555574
19 3 0.719446 0.500305 0.612783
20 2 0.694309 0.536653 0.553311
21 3 0.685741 0.547018 0.599982
22 3 0.699877 0.585725 0.534726
23 1 0.680411 0.509004 0.505226
2 6 0.814588 0.507415 0.530832
4 3 0.797168 0.58799 0.522423
ITEM: TIMESTEP
1000
ITEM: NUMBER OF ATOMS
101
ITEM: BOX BOUNDS pp pp pp
-3.3000000000000000e+01 3.3000000000000000e+01
-1.0000000000000000e+01 1.0000000000000000e+01
-1.0000000000000000e+01 1.0000000000000000e+01
ITEM: ATOMS id type xs ys zs
94 2 0.347073 0.521077 0.439758
96 3 0.330457 0.537647 0.436221
97 5 0.35505 0.523613 0.367384
98 3 0.347189 0.490417 0.337799
77 3 0.39798 0.339023 0.572614
76 2 0.409025 0.377218 0.553303
73 2 0.409496 0.374376 0.476516
75 3 0.409735 0.323467 0.459494
51 1 0.502703 0.553968 0.487978
52 2 0.483648 0.537691 0.459947
54 3 0.485434 0.496393 0.423118
56 3 0.457515 0.484854 0.50127
53 3 0.477827 0.582287 0.429728
55 2 0.469269 0.520901 0.517185
29 3 0.60825 0.562921 0.511447
30 1 0.579378 0.564086 0.47099
31 2 0.584557 0.557738 0.401523
32 3 0.574319 0.590615 0.36978
33 3 0.600157 0.576356 0.394534
35 3 0.582406 0.475916 0.326465
9 1 0.64789 0.52547 0.497181
10 2 0.654279 0.470058 0.533054
11 3 0.652517 0.424791 0.501389
12 3 0.670655 0.47273 0.544769
14 3 0.644896 0.423086 0.628609
8 3 0.65357 0.577904 0.406824
95 3 0.346598 0.46675 0.45289
89 3 0.355977 0.520243 0.65075
90 2 0.349971 0.567797 0.553516
91 3 0.334823 0.54715 0.55254
92 3 0.348393 0.622808 0.563565
93 1 0.358197 0.560095 0.487537
69 2 0.424162 0.440619 0.392264
70 3 0.413802 0.411993 0.357578
71 3 0.439262 0.442048 0.367187
72 1 0.427549 0.407878 0.454542
74 3 0.395542 0.397453 0.457066
47 3 0.516493 0.46004 0.577873
48 2 0.518579 0.506508 0.478737
49 3 0.532299 0.538018 0.489713
50 3 0.520002 0.491378 0.425773
24 2 0.587097 0.603197 0.584551
27 2 0.59456 0.595374 0.512348
28 3 0.598331 0.644163 0.492236
26 3 0.600012 0.626034 0.614696
3 5 0.651443 0.474495 0.387887
5 3 0.655071 0.482968 0.337941
6 2 0.658072 0.531187 0.434085
7 3 0.675013 0.53377 0.439516
99 3 0.355421 0.571498 0.346646
100 7 0.374641 0.496093 0.360596
79 1 0.403911 0.441736 0.581051
80 2 0.397151 0.448102 0.64902
81 3 0.383148 0.418532 0.658023
82 3 0.409134 0.423332 0.680586
84 3 0.38556 0.530972 0.712522
59 2 0.439472 0.5709 0.561297
60 3 0.436804 0.52122 0.582392
78 3 0.423793 0.361425 0.571093
57 3 0.477211 0.496309 0.560243
58 1 0.460237 0.582258 0.546525
61 3 0.435734 0.60505 0.602141
34 2 0.583023 0.483262 0.380171
36 3 0.596302 0.455201 0.395889
37 1 0.564786 0.451445 0.408634
38 2 0.568344 0.407209 0.468488
39 3 0.56457 0.352151 0.452885
40 3 0.584769 0.404838 0.482029
13 2 0.641335 0.468871 0.596366
15 3 0.64391 0.515325 0.625324
16 1 0.620129 0.469699 0.574307
17 2 0.60323 0.445731 0.613793
18 3 0.591545 0.42334 0.581929
1 4 0.625373 0.462195 0.425576
101 4 0.381266 0.498577 0.400347
83 2 0.394375 0.524373 0.665299
85 3 0.409401 0.547813 0.675898
86 1 0.383726 0.559461 0.612841
87 2 0.363653 0.531367 0.601921
88 3 0.365237 0.480886 0.575349
62 2 0.425344 0.584906 0.501232
63 3 0.408943 0.577919 0.512734
64 3 0.426363 0.639974 0.482797
65 1 0.430806 0.546695 0.441853
66 2 0.415369 0.509861 0.408721
67 3 0.402349 0.505636 0.442309
68 3 0.410101 0.536026 0.363438
42 3 0.55949 0.409549 0.574795
44 1 0.534453 0.40427 0.51249
45 2 0.516771 0.447032 0.524617
46 3 0.503027 0.416669 0.512515
25 3 0.574523 0.638083 0.583088
41 2 0.55458 0.430105 0.527003
43 3 0.55515 0.485038 0.534333
19 3 0.607516 0.405402 0.648738
20 2 0.595122 0.505615 0.653165
21 3 0.586576 0.490776 0.699429
22 3 0.606989 0.540349 0.668976
23 1 0.580941 0.53863 0.610385
2 6 0.630414 0.461961 0.383363
4 3 0.659066 0.429143 0.406018
ITEM: TIMESTEP
2000
ITEM: NUMBER OF ATOMS
101
ITEM: BOX BOUNDS pp pp pp
-3.3000000000000000e+01 3.3000000000000000e+01
-1.0000000000000000e+01 1.0000000000000000e+01
-1.0000000000000000e+01 1.0000000000000000e+01
ITEM: ATOMS id type xs ys zs
73 2 0.422057 0.365027 0.386175
75 3 0.418432 0.329929 0.343407
95 3 0.379663 0.584474 0.500991
69 2 0.428291 0.47142 0.319721
70 3 0.41756 0.456975 0.280169
71 3 0.442741 0.487221 0.296318
72 1 0.43375 0.420253 0.363299
74 3 0.407659 0.382328 0.41144
100 7 0.337397 0.605142 0.484541
54 3 0.502507 0.54462 0.488694
50 3 0.514828 0.36721 0.461863
35 3 0.53028 0.624235 0.328721
3 5 0.593498 0.341376 0.716163
5 3 0.605878 0.323899 0.753629
34 2 0.546765 0.627897 0.324356
36 3 0.550054 0.62542 0.268201
37 1 0.554819 0.570888 0.356958
38 2 0.556189 0.513477 0.314035
39 3 0.542255 0.507319 0.280287
40 3 0.569543 0.521675 0.282261
1 4 0.565197 0.334084 0.720167
2 6 0.575758 0.308799 0.735467
4 3 0.589253 0.395528 0.732978
96 3 0.369045 0.509134 0.473655
94 2 0.369026 0.541036 0.512634
97 5 0.347282 0.565789 0.532527
98 3 0.336587 0.524364 0.545616
93 1 0.379341 0.497884 0.561706
99 3 0.348363 0.59938 0.580954
101 4 0.332037 0.579656 0.451611
62 2 0.436732 0.600148 0.44777
64 3 0.447469 0.641159 0.436027
65 1 0.438234 0.549034 0.401341
66 2 0.42008 0.52791 0.364598
67 3 0.407533 0.509974 0.399927
68 3 0.414189 0.571086 0.335602
51 1 0.504351 0.445158 0.526692
52 2 0.496532 0.510936 0.529808
53 3 0.500337 0.53768 0.577543
48 2 0.512869 0.423667 0.461913
49 3 0.501093 0.432595 0.424241
30 1 0.552747 0.693491 0.432118
31 2 0.555788 0.690345 0.358501
32 3 0.548825 0.736871 0.336713
33 3 0.572367 0.694918 0.350402
9 1 0.612608 0.394387 0.623263
8 3 0.587963 0.333162 0.609619
28 3 0.567288 0.715094 0.524805
6 2 0.601372 0.335233 0.644619
7 3 0.610609 0.290989 0.638976
77 3 0.428217 0.278594 0.449164
76 2 0.435 0.326786 0.438787
79 1 0.437787 0.364317 0.499695
80 2 0.42771 0.335634 0.555138
81 3 0.412062 0.322049 0.540408
82 3 0.435512 0.287191 0.566768
78 3 0.451189 0.319181 0.418484
88 3 0.394601 0.451456 0.694282
56 3 0.469794 0.479406 0.47426
47 3 0.532415 0.513351 0.447581
44 1 0.537731 0.443516 0.375924
45 2 0.532808 0.457631 0.443809
46 3 0.545367 0.440525 0.47748
41 2 0.558428 0.452975 0.359234
43 3 0.568233 0.463608 0.400347
10 2 0.626404 0.427908 0.668915
11 3 0.617275 0.441358 0.711952
14 3 0.64712 0.513829 0.668909
13 2 0.635267 0.490531 0.635285
16 1 0.61833 0.531064 0.623776
17 2 0.624336 0.594664 0.596167
18 3 0.617064 0.634234 0.626482
42 3 0.564808 0.409328 0.332492