LAMMPS (7 Feb 2024 - Update 1)
OMP_NUM_THREADS environment is not set. Defaulting to 1 thread. (src/comm.cpp:98)
  using 1 OpenMP thread(s) per MPI task
ITEM: TIMESTEP
ERROR: Unknown command: ITEM: TIMESTEP (src/input.cpp:314)
Last command: ITEM: TIMESTEP
