ITEM: TIMESTEP
0
ITEM: NUMBER OF ATOMS
690
ITEM: BOX BOUNDS ff ff ff
-4.0000000000000000e+01 4.0000000000000000e+01
-4.0000000000000000e+01 4.0000000000000000e+01
-4.0000000000000000e+01 4.0000000000000000e+01
ITEM: ATOMS id type xs ys zs
24 1 0.435471 0.494192 0.191827
1 1 0.439341 0.477234 0.195176
25 1 0.436251 0.488431 0.161679
2 1 0.441626 0.471889 0.165029
3 1 0.444381 0.466769 0.181778
5 1 0.455226 0.45317 0.185127
4 1 0.447584 0.461917 0.15163
6 1 0.459604 0.449345 0.15498
8 1 0.464307 0.445928 0.171728
9 1 0.479979 0.438381 0.175078
10 1 0.485583 0.436835 0.191827
11 1 0.491303 0.435797 0.161679
12 1 0.502907 0.435275 0.195176
13 1 0.508697 0.435797 0.165029
14 1 0.514417 0.436835 0.181778
16 1 0.530702 0.442946 0.185127
15 1 0.520021 0.438381 0.15163
17 1 0.535693 0.445928 0.15498
19 1 0.540396 0.449345 0.171728
20 1 0.552416 0.461917 0.175078
21 1 0.555619 0.466769 0.191827
27 1 0.562455 0.482764 0.195176
22 1 0.558374 0.471889 0.161679
30 1 0.563749 0.488431 0.165029
32 1 0.564529 0.494192 0.181778
44 1 0.497093 0.564725 0.171728
43 1 0.479979 0.561619 0.175078
42 1 0.474536 0.559576 0.191827
40 1 0.459604 0.550655 0.195176
41 1 0.469298 0.557054 0.161679
39 1 0.455226 0.54683 0.165029
38 1 0.451209 0.542628 0.181778
36 1 0.441626 0.528111 0.185127
37 1 0.447584 0.538083 0.15163
34 1 0.439341 0.522766 0.15498
26 1 0.437545 0.517236 0.171728
23 1 0.43521 0.5 0.175078
33 1 0.56479 0.5 0.15163
28 1 0.562455 0.517236 0.15498
55 1 0.560659 0.522766 0.171728
54 1 0.552416 0.538083 0.175078
53 1 0.548791 0.542628 0.191827
51 1 0.535693 0.554072 0.195176
52 1 0.544774 0.54683 0.161679
50 1 0.530702 0.557054 0.165029
49 1 0.525464 0.559576 0.181778
47 1 0.508697 0.564203 0.185127
48 1 0.520021 0.561619 0.15163
45 1 0.502907 0.564725 0.15498
31 1 0.563749 0.511569 0.185127
130 1 0.435471 0.494192 0.285619
81 1 0.436251 0.488431 0.255471
133 1 0.437545 0.482764 0.27222
112 1 0.444381 0.466769 0.275569
83 1 0.437545 0.482764 0.225324
56 1 0.439341 0.477234 0.242072
58 1 0.447584 0.461917 0.245422
114 1 0.451209 0.457372 0.262171
116 1 0.464307 0.445928 0.26552
117 1 0.469298 0.442946 0.282269
118 1 0.485583 0.436835 0.285619
57 1 0.441626 0.471889 0.211925
59 1 0.451209 0.457372 0.215275
60 1 0.455226 0.45317 0.232023
61 1 0.469298 0.442946 0.235373
63 1 0.474536 0.440424 0.252121
65 1 0.491303 0.435797 0.255471
120 1 0.497093 0.435275 0.27222
7 1 0.459604 0.449345 0.201876
62 1 0.474536 0.440424 0.205226
64 1 0.479979 0.438381 0.221974
66 1 0.497093 0.435275 0.225324
113 1 0.447584 0.461917 0.292318
115 1 0.459604 0.449345 0.295668
67 1 0.502907 0.435275 0.242072
69 1 0.520021 0.438381 0.245422
123 1 0.525464 0.440424 0.262171
125 1 0.540396 0.449345 0.26552
126 1 0.544774 0.45317 0.282269
127 1 0.555619 0.466769 0.285619
68 1 0.508697 0.435797 0.211925
70 1 0.525464 0.440424 0.215275
71 1 0.530702 0.442946 0.232023
72 1 0.544774 0.45317 0.235373
74 1 0.548791 0.457372 0.252121
76 1 0.558374 0.471889 0.255471
129 1 0.560659 0.477234 0.27222
137 1 0.564529 0.494192 0.275569
18 1 0.535693 0.445928 0.201876
73 1 0.548791 0.457372 0.205226
75 1 0.552416 0.461917 0.221974
77 1 0.560659 0.477234 0.225324
84 1 0.562455 0.482764 0.242072
85 1 0.563749 0.488431 0.211925
122 1 0.520021 0.438381 0.292318
124 1 0.535693 0.445928 0.295668
149 1 0.497093 0.564725 0.26552
148 1 0.491303 0.564203 0.282269
147 1 0.474536 0.559576 0.285619
99 1 0.491303 0.564203 0.235373
98 1 0.485583 0.563165 0.252121
95 1 0.469298 0.557054 0.255471
145 1 0.464307 0.554072 0.27222
143 1 0.451209 0.542628 0.275569
97 1 0.485583 0.563165 0.205226
96 1 0.479979 0.561619 0.221974
94 1 0.464307 0.554072 0.225324
93 1 0.459604 0.550655 0.242072
91 1 0.447584 0.538083 0.245422
141 1 0.444381 0.533231 0.262171
134 1 0.437545 0.517236 0.26552
132 1 0.436251 0.511569 0.282269
92 1 0.455226 0.54683 0.211925
90 1 0.444381 0.533231 0.215275
89 1 0.441626 0.528111 0.232023
82 1 0.436251 0.511569 0.235373
80 1 0.435471 0.505808 0.252121
35 1 0.439341 0.522766 0.201876
79 1 0.435471 0.505808 0.205226
78 1 0.43521 0.5 0.221974
142 1 0.447584 0.538083 0.292318
140 1 0.439341 0.522766 0.295668
138 1 0.564529 0.505808 0.262171
159 1 0.560659 0.522766 0.26552
158 1 0.558374 0.528111 0.282269
157 1 0.548791 0.542628 0.285619
86 1 0.563749 0.511569 0.232023
110 1 0.558374 0.528111 0.235373
109 1 0.555619 0.533231 0.252121
106 1 0.544774 0.54683 0.255471
155 1 0.540396 0.550655 0.27222
153 1 0.525464 0.559576 0.275569
29 1 0.562455 0.517236 0.201876
108 1 0.555619 0.533231 0.205226
107 1 0.552416 0.538083 0.221974
105 1 0.540396 0.550655 0.225324
104 1 0.535693 0.554072 0.242072
102 1 0.520021 0.561619 0.245422
151 1 0.514417 0.563165 0.262171
103 1 0.530702 0.557054 0.211925
101 1 0.514417 0.563165 0.215275
100 1 0.508697 0.564203 0.232023
46 1 0.502907 0.564725 0.201876
88 1 0.56479 0.5 0.245422
87 1 0.564529 0.505808 0.215275
139 1 0.56479 0.5 0.292318
135 1 0.562455 0.517236 0.295668
152 1 0.520021 0.561619 0.292318
150 1 0.502907 0.564725 0.295668
237 1 0.436251 0.488431 0.396159
239 1 0.437545 0.482764 0.366012
214 1 0.439341 0.477234 0.38276
216 1 0.447584 0.461917 0.38611
184 1 0.435471 0.494192 0.332514
160 1 0.439341 0.477234 0.335864
161 1 0.441626 0.471889 0.352613
163 1 0.451209 0.457372 0.355962
218 1 0.455226 0.45317 0.372711
220 1 0.469298 0.442946 0.376061
221 1 0.474536 0.440424 0.392809
222 1 0.491303 0.435797 0.396159
131 1 0.436251 0.488431 0.302367
111 1 0.441626 0.471889 0.305717
162 1 0.444381 0.466769 0.322465
164 1 0.455226 0.45317 0.325815
165 1 0.459604 0.449345 0.342564
167 1 0.474536 0.440424 0.345913
169 1 0.479979 0.438381 0.362662
223 1 0.497093 0.435275 0.366012
166 1 0.464307 0.445928 0.312416
168 1 0.479979 0.438381 0.315766
170 1 0.485583 0.436835 0.332514
119 1 0.491303 0.435797 0.302367
225 1 0.502907 0.435275 0.38276
227 1 0.520021 0.438381 0.38611
171 1 0.502907 0.435275 0.335864
172 1 0.508697 0.435797 0.352613
174 1 0.525464 0.440424 0.355962
229 1 0.530702 0.442946 0.372711
231 1 0.544774 0.45317 0.376061
232 1 0.548791 0.457372 0.392809
233 1 0.558374 0.471889 0.396159
121 1 0.508697 0.435797 0.305717
173 1 0.514417 0.436835 0.322465
175 1 0.530702 0.442946 0.325815
176 1 0.535693 0.445928 0.342564
178 1 0.548791 0.457372 0.345913
180 1 0.552416 0.461917 0.362662
234 1 0.560659 0.477234 0.366012
242 1 0.562455 0.482764 0.38276
177 1 0.540396 0.449345 0.312416
179 1 0.552416 0.461917 0.315766
181 1 0.555619 0.466769 0.332514
187 1 0.562455 0.482764 0.335864
188 1 0.563749 0.488431 0.352613
128 1 0.558374 0.471889 0.302367
136 1 0.563749 0.488431 0.305717
190 1 0.564529 0.494192 0.322465
255 1 0.491303 0.564203 0.376061
254 1 0.485583 0.563165 0.392809
253 1 0.469298 0.557054 0.396159
201 1 0.485583 0.563165 0.345913
200 1 0.479979 0.561619 0.362662
251 1 0.464307 0.554072 0.366012
250 1 0.459604 0.550655 0.38276
248 1 0.447584 0.538083 0.38611
202 1 0.497093 0.564725 0.312416
199 1 0.479979 0.561619 0.315766
198 1 0.474536 0.559576 0.332514
197 1 0.459604 0.550655 0.335864
196 1 0.455226 0.54683 0.352613
194 1 0.444381 0.533231 0.355962
246 1 0.441626 0.528111 0.372711
238 1 0.436251 0.511569 0.376061
236 1 0.435471 0.505808 0.392809
146 1 0.469298 0.557054 0.302367
144 1 0.455226 0.54683 0.305717
195 1 0.451209 0.542628 0.322465
193 1 0.441626 0.528111 0.325815
192 1 0.439341 0.522766 0.342564
185 1 0.435471 0.505808 0.345913
183 1 0.43521 0.5 0.362662
186 1 0.437545 0.517236 0.312416
182 1 0.43521 0.5 0.315766
243 1 0.563749 0.511569 0.372711
265 1 0.558374 0.528111 0.376061
264 1 0.555619 0.533231 0.392809
263 1 0.544774 0.54683 0.396159
212 1 0.555619 0.533231 0.345913
211 1 0.552416 0.538083 0.362662
261 1 0.540396 0.550655 0.366012
259 1 0.520021 0.561619 0.38611
213 1 0.560659 0.522766 0.312416
210 1 0.552416 0.538083 0.315766
209 1 0.548791 0.542628 0.332514
208 1 0.535693 0.554072 0.335864
207 1 0.530702 0.557054 0.352613
205 1 0.514417 0.563165 0.355962
257 1 0.508697 0.564203 0.372711
156 1 0.544774 0.54683 0.302367
154 1 0.530702 0.557054 0.305717
206 1 0.525464 0.559576 0.322465
204 1 0.508697 0.564203 0.325815
203 1 0.502907 0.564725 0.342564
191 1 0.564529 0.505808 0.355962
189 1 0.563749 0.511569 0.325815
288 1 0.435471 0.494192 0.426306
240 1 0.437545 0.482764 0.412908
215 1 0.444381 0.466769 0.416257
217 1 0.451209 0.457372 0.402858
219 1 0.464307 0.445928 0.406208
273 1 0.469298 0.442946 0.422957
275 1 0.485583 0.436835 0.426306
224 1 0.497093 0.435275 0.412908
340 1 0.435471 0.494192 0.473202
316 1 0.439341 0.477234 0.476552
318 1 0.441626 0.471889 0.493301
320 1 0.451209 0.457372 0.49665
289 1 0.436251 0.488431 0.443055
267 1 0.441626 0.471889 0.446405
268 1 0.444381 0.466769 0.463153
270 1 0.455226 0.45317 0.466503
321 1 0.459604 0.449345 0.483251
323 1 0.474536 0.440424 0.486601
269 1 0.447584 0.461917 0.433006
271 1 0.459604 0.449345 0.436355
272 1 0.464307 0.445928 0.453104
274 1 0.479979 0.438381 0.456454
325 1 0.485583 0.436835 0.473202
276 1 0.491303 0.435797 0.443055
226 1 0.514417 0.436835 0.416257
228 1 0.525464 0.440424 0.402858
230 1 0.540396 0.449345 0.406208
283 1 0.544774 0.45317 0.422957
285 1 0.555619 0.466769 0.426306
235 1 0.560659 0.477234 0.412908
244 1 0.564529 0.494192 0.416257
327 1 0.502907 0.435275 0.476552
329 1 0.508697 0.435797 0.493301
331 1 0.525464 0.440424 0.49665
277 1 0.508697 0.435797 0.446405
278 1 0.514417 0.436835 0.463153
280 1 0.530702 0.442946 0.466503
333 1 0.535693 0.445928 0.483251
335 1 0.548791 0.457372 0.486601
279 1 0.520021 0.438381 0.433006
281 1 0.535693 0.445928 0.436355
282 1 0.540396 0.449345 0.453104
284 1 0.552416 0.461917 0.456454
337 1 0.555619 0.466769 0.473202
344 1 0.562455 0.482764 0.476552
347 1 0.563749 0.488431 0.493301
286 1 0.558374 0.471889 0.443055
293 1 0.563749 0.488431 0.446405
295 1 0.564529 0.494192 0.463153
256 1 0.497093 0.564725 0.406208
304 1 0.491303 0.564203 0.422957
302 1 0.474536 0.559576 0.426306
252 1 0.464307 0.554072 0.412908
249 1 0.451209 0.542628 0.416257
247 1 0.444381 0.533231 0.402858
241 1 0.437545 0.517236 0.406208
290 1 0.436251 0.511569 0.422957
361 1 0.485583 0.563165 0.486601
305 1 0.497093 0.564725 0.453104
303 1 0.479979 0.561619 0.456454
359 1 0.474536 0.559576 0.473202
356 1 0.459604 0.550655 0.476552
355 1 0.455226 0.54683 0.493301
353 1 0.444381 0.533231 0.49665
301 1 0.469298 0.557054 0.443055
300 1 0.455226 0.54683 0.446405
299 1 0.451209 0.542628 0.463153
298 1 0.441626 0.528111 0.466503
351 1 0.439341 0.522766 0.483251
341 1 0.435471 0.505808 0.486601
297 1 0.439341 0.522766 0.436355
291 1 0.437545 0.517236 0.453104
287 1 0.43521 0.5 0.456454
245 1 0.564529 0.505808 0.402858
266 1 0.560659 0.522766 0.406208
314 1 0.558374 0.528111 0.422957
312 1 0.548791 0.542628 0.426306
262 1 0.540396 0.550655 0.412908
260 1 0.525464 0.559576 0.416257
258 1 0.514417 0.563165 0.402858
346 1 0.562455 0.517236 0.483251
373 1 0.555619 0.533231 0.486601
296 1 0.56479 0.5 0.433006
292 1 0.562455 0.517236 0.436355
315 1 0.560659 0.522766 0.453104
313 1 0.552416 0.538083 0.456454
371 1 0.548791 0.542628 0.473202
368 1 0.535693 0.554072 0.476552
367 1 0.530702 0.557054 0.493301
365 1 0.514417 0.563165 0.49665
311 1 0.544774 0.54683 0.443055
310 1 0.530702 0.557054 0.446405
309 1 0.525464 0.559576 0.463153
307 1 0.508697 0.564203 0.466503
363 1 0.502907 0.564725 0.483251
308 1 0.520021 0.561619 0.433006
306 1 0.502907 0.564725 0.436355
349 1 0.564529 0.505808 0.49665
294 1 0.563749 0.511569 0.466503
394 1 0.435471 0.494192 0.566994
396 1 0.436251 0.488431 0.536847
398 1 0.437545 0.482764 0.553595
374 1 0.444381 0.466769 0.556945
343 1 0.437545 0.482764 0.506699
317 1 0.439341 0.477234 0.523448
319 1 0.447584 0.461917 0.526798
376 1 0.451209 0.457372 0.543546
378 1 0.464307 0.445928 0.546896
379 1 0.469298 0.442946 0.563644
381 1 0.485583 0.436835 0.566994
322 1 0.469298 0.442946 0.516749
380 1 0.474536 0.440424 0.533497
382 1 0.491303 0.435797 0.536847
383 1 0.497093 0.435275 0.553595
324 1 0.479979 0.438381 0.50335
326 1 0.497093 0.435275 0.506699
447 1 0.436251 0.488431 0.583743
424 1 0.441626 0.471889 0.587092
375 1 0.447584 0.461917 0.573694
377 1 0.459604 0.449345 0.577043
429 1 0.464307 0.445928 0.593792
431 1 0.479979 0.438381 0.597142
433 1 0.491303 0.435797 0.583743
384 1 0.514417 0.436835 0.556945
328 1 0.502907 0.435275 0.523448
330 1 0.520021 0.438381 0.526798
386 1 0.525464 0.440424 0.543546
388 1 0.540396 0.449345 0.546896
389 1 0.544774 0.45317 0.563644
391 1 0.555619 0.466769 0.566994
332 1 0.530702 0.442946 0.513399
334 1 0.544774 0.45317 0.516749
390 1 0.548791 0.457372 0.533497
392 1 0.558374 0.471889 0.536847
393 1 0.560659 0.477234 0.553595
401 1 0.564529 0.494192 0.556945
336 1 0.552416 0.461917 0.50335
338 1 0.560659 0.477234 0.506699
345 1 0.562455 0.482764 0.523448
435 1 0.508697 0.435797 0.587092
385 1 0.520021 0.438381 0.573694
387 1 0.535693 0.445928 0.577043
440 1 0.540396 0.449345 0.593792
442 1 0.552416 0.461917 0.597142
444 1 0.558374 0.471889 0.583743
451 1 0.563749 0.488431 0.587092
412 1 0.497093 0.564725 0.546896
411 1 0.491303 0.564203 0.563644
362 1 0.491303 0.564203 0.516749
410 1 0.485583 0.563165 0.533497
409 1 0.469298 0.557054 0.536847
408 1 0.464307 0.554072 0.553595
407 1 0.451209 0.542628 0.556945
360 1 0.479979 0.561619 0.50335
358 1 0.464307 0.554072 0.506699
357 1 0.459604 0.550655 0.523448
354 1 0.447584 0.538083 0.526798
405 1 0.444381 0.533231 0.543546
399 1 0.437545 0.517236 0.546896
397 1 0.436251 0.511569 0.563644
352 1 0.441626 0.528111 0.513399
342 1 0.436251 0.511569 0.516749
395 1 0.435471 0.505808 0.533497
339 1 0.43521 0.5 0.50335
465 1 0.497093 0.564725 0.593792
463 1 0.479979 0.561619 0.597142
461 1 0.469298 0.557054 0.583743
458 1 0.455226 0.54683 0.587092
406 1 0.447584 0.538083 0.573694
404 1 0.439341 0.522766 0.577043
448 1 0.437545 0.517236 0.593792
402 1 0.564529 0.505808 0.543546
422 1 0.560659 0.522766 0.546896
421 1 0.558374 0.528111 0.563644
419 1 0.548791 0.542628 0.566994
348 1 0.563749 0.511569 0.513399
420 1 0.555619 0.533231 0.533497
418 1 0.544774 0.54683 0.536847
417 1 0.540396 0.550655 0.553595
416 1 0.525464 0.559576 0.556945
372 1 0.552416 0.538083 0.50335
370 1 0.540396 0.550655 0.506699
369 1 0.535693 0.554072 0.523448
366 1 0.520021 0.561619 0.526798
414 1 0.514417 0.563165 0.543546
364 1 0.508697 0.564203 0.513399
350 1 0.56479 0.5 0.526798
403 1 0.56479 0.5 0.573694
400 1 0.562455 0.517236 0.577043
476 1 0.560659 0.522766 0.593792
474 1 0.552416 0.538083 0.597142
472 1 0.544774 0.54683 0.583743
469 1 0.530702 0.557054 0.587092
415 1 0.520021 0.561619 0.573694
413 1 0.502907 0.564725 0.577043
500 1 0.436251 0.488431 0.677535
555 1 0.437545 0.482764 0.694283
532 1 0.444381 0.466769 0.697633
502 1 0.437545 0.482764 0.647387
477 1 0.439341 0.477234 0.664136
478 1 0.447584 0.461917 0.667486
480 1 0.451209 0.457372 0.684234
482 1 0.464307 0.445928 0.687584
445 1 0.435471 0.494192 0.61389
423 1 0.439341 0.477234 0.61724
425 1 0.441626 0.471889 0.633988
479 1 0.451209 0.457372 0.637338
481 1 0.455226 0.45317 0.654087
483 1 0.469298 0.442946 0.657436
484 1 0.474536 0.440424 0.674185
486 1 0.491303 0.435797 0.677535
540 1 0.497093 0.435275 0.694283
426 1 0.444381 0.466769 0.603841
427 1 0.455226 0.45317 0.607191
428 1 0.459604 0.449345 0.623939
430 1 0.474536 0.440424 0.627289
485 1 0.479979 0.438381 0.644038
487 1 0.497093 0.435275 0.647387
432 1 0.485583 0.436835 0.61389
542 1 0.514417 0.436835 0.697633
488 1 0.502907 0.435275 0.664136
489 1 0.520021 0.438381 0.667486
491 1 0.525464 0.440424 0.684234
492 1 0.540396 0.449345 0.687584
434 1 0.502907 0.435275 0.61724
436 1 0.508697 0.435797 0.633988
490 1 0.525464 0.440424 0.637338
493 1 0.544774 0.45317 0.657436
494 1 0.548791 0.457372 0.674185
496 1 0.558374 0.471889 0.677535
550 1 0.560659 0.477234 0.694283
559 1 0.564529 0.494192 0.697633
437 1 0.514417 0.436835 0.603841
438 1 0.530702 0.442946 0.607191
439 1 0.535693 0.445928 0.623939
441 1 0.548791 0.457372 0.627289
495 1 0.552416 0.461917 0.644038
497 1 0.560659 0.477234 0.647387
504 1 0.562455 0.482764 0.664136
443 1 0.555619 0.466769 0.61389
449 1 0.562455 0.482764 0.61724
452 1 0.563749 0.488431 0.633988
454 1 0.564529 0.494192 0.603841
519 1 0.497093 0.564725 0.687584
518 1 0.491303 0.564203 0.657436
517 1 0.485583 0.563165 0.674185
515 1 0.469298 0.557054 0.677535
565 1 0.464307 0.554072 0.694283
563 1 0.451209 0.542628 0.697633
464 1 0.485583 0.563165 0.627289
516 1 0.479979 0.561619 0.644038
514 1 0.464307 0.554072 0.647387
513 1 0.459604 0.550655 0.664136
512 1 0.447584 0.538083 0.667486
511 1 0.444381 0.533231 0.684234
503 1 0.437545 0.517236 0.687584
462 1 0.474536 0.559576 0.61389
460 1 0.459604 0.550655 0.61724
459 1 0.455226 0.54683 0.633988
510 1 0.444381 0.533231 0.637338
509 1 0.441626 0.528111 0.654087
501 1 0.436251 0.511569 0.657436
499 1 0.435471 0.505808 0.674185
457 1 0.451209 0.542628 0.603841
456 1 0.441626 0.528111 0.607191
455 1 0.439341 0.522766 0.623939
446 1 0.435471 0.505808 0.627289
498 1 0.43521 0.5 0.644038
507 1 0.564529 0.505808 0.684234
530 1 0.560659 0.522766 0.687584
505 1 0.563749 0.511569 0.654087
529 1 0.558374 0.528111 0.657436
528 1 0.555619 0.533231 0.674185
526 1 0.544774 0.54683 0.677535
575 1 0.540396 0.550655 0.694283
573 1 0.525464 0.559576 0.697633
450 1 0.562455 0.517236 0.623939
475 1 0.555619 0.533231 0.627289
527 1 0.552416 0.538083 0.644038
525 1 0.540396 0.550655 0.647387
524 1 0.535693 0.554072 0.664136
523 1 0.520021 0.561619 0.667486
522 1 0.514417 0.563165 0.684234
473 1 0.548791 0.542628 0.61389
471 1 0.535693 0.554072 0.61724
470 1 0.530702 0.557054 0.633988
521 1 0.514417 0.563165 0.637338
520 1 0.508697 0.564203 0.654087
468 1 0.525464 0.559576 0.603841
467 1 0.508697 0.564203 0.607191
466 1 0.502907 0.564725 0.623939
508 1 0.56479 0.5 0.667486
506 1 0.564529 0.505808 0.637338
453 1 0.563749 0.511569 0.607191
552 1 0.435471 0.494192 0.707682
536 1 0.469298 0.442946 0.704332
538 1 0.485583 0.436835 0.707682
606 1 0.437545 0.482764 0.788075
604 1 0.435471 0.494192 0.754578
581 1 0.439341 0.477234 0.757928
582 1 0.441626 0.471889 0.774676
584 1 0.451209 0.457372 0.778026
586 1 0.455226 0.45317 0.794775
641 1 0.469298 0.442946 0.798124
553 1 0.436251 0.488431 0.724431
531 1 0.441626 0.471889 0.72778
583 1 0.444381 0.466769 0.744529
585 1 0.455226 0.45317 0.747879
587 1 0.459604 0.449345 0.764627
588 1 0.474536 0.440424 0.767977
589 1 0.479979 0.438381 0.784725
591 1 0.497093 0.435275 0.788075
533 1 0.447584 0.461917 0.714381
534 1 0.459604 0.449345 0.717731
535 1 0.464307 0.445928 0.73448
537 1 0.479979 0.438381 0.737829
590 1 0.485583 0.436835 0.754578
539 1 0.491303 0.435797 0.724431
612 1 0.564529 0.494192 0.744529
558 1 0.563749 0.488431 0.72778
549 1 0.558374 0.471889 0.724431
609 1 0.563749 0.488431 0.774676
607 1 0.562455 0.482764 0.757928
601 1 0.555619 0.466769 0.754578
547 1 0.552416 0.461917 0.737829
546 1 0.544774 0.45317 0.704332
548 1 0.555619 0.466769 0.707682
545 1 0.540396 0.449345 0.73448
592 1 0.502907 0.435275 0.757928
593 1 0.508697 0.435797 0.774676
595 1 0.525464 0.440424 0.778026
597 1 0.530702 0.442946 0.794775
652 1 0.544774 0.45317 0.798124
541 1 0.508697 0.435797 0.72778
594 1 0.514417 0.436835 0.744529
596 1 0.530702 0.442946 0.747879
598 1 0.535693 0.445928 0.764627
599 1 0.548791 0.457372 0.767977
600 1 0.552416 0.461917 0.784725
602 1 0.560659 0.477234 0.788075
543 1 0.520021 0.438381 0.714381
544 1 0.535693 0.445928 0.717731
569 1 0.491303 0.564203 0.704332
567 1 0.474536 0.559576 0.707682
554 1 0.436251 0.511569 0.704332
677 1 0.491303 0.564203 0.798124
624 1 0.485583 0.563165 0.767977
623 1 0.479979 0.561619 0.784725
621 1 0.464307 0.554072 0.788075
570 1 0.497093 0.564725 0.73448
568 1 0.479979 0.561619 0.737829
622 1 0.474536 0.559576 0.754578
620 1 0.459604 0.550655 0.757928
619 1 0.455226 0.54683 0.774676
617 1 0.444381 0.533231 0.778026
616 1 0.441626 0.528111 0.794775
661 1 0.436251 0.511569 0.798124
566 1 0.469298 0.557054 0.724431
564 1 0.455226 0.54683 0.72778
618 1 0.451209 0.542628 0.744529
615 1 0.441626 0.528111 0.747879
614 1 0.439341 0.522766 0.764627
605 1 0.435471 0.505808 0.767977
603 1 0.43521 0.5 0.784725
562 1 0.447584 0.538083 0.714381
561 1 0.439341 0.522766 0.717731
556 1 0.437545 0.517236 0.73448
551 1 0.43521 0.5 0.737829
610 1 0.563749 0.511569 0.747879
613 1 0.564529 0.505808 0.778026
579 1 0.558374 0.528111 0.704332
577 1 0.548791 0.542628 0.707682
611 1 0.563749 0.511569 0.794775
688 1 0.558374 0.528111 0.798124
608 1 0.562455 0.517236 0.764627
635 1 0.555619 0.533231 0.767977
634 1 0.552416 0.538083 0.784725
632 1 0.540396 0.550655 0.788075
560 1 0.56479 0.5 0.714381
557 1 0.562455 0.517236 0.717731
580 1 0.560659 0.522766 0.73448
578 1 0.552416 0.538083 0.737829
633 1 0.548791 0.542628 0.754578
631 1 0.535693 0.554072 0.757928
630 1 0.530702 0.557054 0.774676
628 1 0.514417 0.563165 0.778026
627 1 0.508697 0.564203 0.794775
576 1 0.544774 0.54683 0.724431
574 1 0.530702 0.557054 0.72778
629 1 0.525464 0.559576 0.744529
626 1 0.508697 0.564203 0.747879
625 1 0.502907 0.564725 0.764627
572 1 0.520021 0.561619 0.714381
571 1 0.502907 0.564725 0.717731
658 1 0.435471 0.494192 0.84837
660 1 0.436251 0.488431 0.818222
663 1 0.437545 0.482764 0.834971
637 1 0.444381 0.466769 0.838321
636 1 0.439341 0.477234 0.804824
638 1 0.447584 0.461917 0.808173
639 1 0.451209 0.457372 0.824922
640 1 0.464307 0.445928 0.828272
642 1 0.469298 0.442946 0.84502
644 1 0.485583 0.436835 0.84837
643 1 0.474536 0.440424 0.814873
645 1 0.491303 0.435797 0.818222
646 1 0.497093 0.435275 0.834971
648 1 0.514417 0.436835 0.838321
647 1 0.502907 0.435275 0.804824
649 1 0.520021 0.438381 0.808173
650 1 0.525464 0.440424 0.824922
651 1 0.540396 0.449345 0.828272
653 1 0.544774 0.45317 0.84502
655 1 0.555619 0.466769 0.84837
654 1 0.548791 0.457372 0.814873
656 1 0.558374 0.471889 0.818222
657 1 0.560659 0.477234 0.834971
666 1 0.564529 0.494192 0.838321
665 1 0.562455 0.482764 0.804824
679 1 0.497093 0.564725 0.828272
678 1 0.491303 0.564203 0.84502
675 1 0.474536 0.559576 0.84837
676 1 0.485583 0.563165 0.814873
674 1 0.469298 0.557054 0.818222
673 1 0.464307 0.554072 0.834971
671 1 0.451209 0.542628 0.838321
672 1 0.459604 0.550655 0.804824
670 1 0.447584 0.538083 0.808173
669 1 0.444381 0.533231 0.824922
664 1 0.437545 0.517236 0.828272
662 1 0.436251 0.511569 0.84502
659 1 0.435471 0.505808 0.814873
667 1 0.564529 0.505808 0.824922
690 1 0.560659 0.522766 0.828272
689 1 0.558374 0.528111 0.84502
686 1 0.548791 0.542628 0.84837
687 1 0.555619 0.533231 0.814873
685 1 0.544774 0.54683 0.818222
684 1 0.540396 0.550655 0.834971
682 1 0.525464 0.559576 0.838321
683 1 0.535693 0.554072 0.804824
681 1 0.520021 0.561619 0.808173
680 1 0.514417 0.563165 0.824922
668 1 0.56479 0.5 0.808173
ITEM: TIMESTEP
100
ITEM: NUMBER OF ATOMS
690
ITEM: BOX BOUNDS ff ff ff
-4.0000000000000000e+01 4.0000000000000000e+01
-4.0000000000000000e+01 4.0000000000000000e+01
-4.0000000000000000e+01 4.0000000000000000e+01
ITEM: ATOMS id type xs ys zs
24 1 0.436119 0.493405 0.191706
1 1 0.438866 0.476461 0.19479
25 1 0.436543 0.487665 0.162146
2 1 0.441387 0.47125 0.164967
3 1 0.443969 0.466554 0.1814
5 1 0.455671 0.454199 0.184425
4 1 0.447584 0.461917 0.15163
6 1 0.459604 0.449345 0.15498
8 1 0.465113 0.447424 0.171584
9 1 0.480082 0.439955 0.17483
10 1 0.486038 0.439221 0.191656
11 1 0.490898 0.436048 0.16142
12 1 0.502783 0.437206 0.1947
13 1 0.508148 0.437464 0.164797
14 1 0.513997 0.439206 0.181579
16 1 0.530199 0.444678 0.184583
15 1 0.520021 0.438381 0.15163
17 1 0.535693 0.445928 0.15498
19 1 0.540121 0.450376 0.17188
20 1 0.552389 0.462376 0.175053
21 1 0.554883 0.466984 0.19184
27 1 0.562267 0.482405 0.195256
22 1 0.558448 0.472381 0.161974
30 1 0.563223 0.488754 0.165249
32 1 0.564422 0.49442 0.181413
44 1 0.497005 0.563611 0.17147
43 1 0.479137 0.561986 0.17384
42 1 0.474737 0.557674 0.190837
40 1 0.459747 0.549254 0.194237
41 1 0.467477 0.558388 0.160519
39 1 0.455093 0.546571 0.164251
38 1 0.451228 0.541582 0.180783
36 1 0.442232 0.526673 0.184529
37 1 0.447584 0.538083 0.15163
34 1 0.439341 0.522766 0.15498
26 1 0.437867 0.516214 0.171613
23 1 0.435162 0.499396 0.175209
33 1 0.56479 0.5 0.15163
28 1 0.562455 0.517236 0.15498
55 1 0.560173 0.522272 0.171101
54 1 0.551934 0.537684 0.174857
53 1 0.548218 0.542705 0.191633
51 1 0.535353 0.554287 0.194848
52 1 0.544861 0.546885 0.161688
50 1 0.530966 0.556768 0.165062
49 1 0.525484 0.558969 0.181328
47 1 0.508672 0.56268 0.184487
48 1 0.520021 0.561619 0.15163
45 1 0.502907 0.564725 0.15498
31 1 0.563476 0.511528 0.184899
130 1 0.435479 0.494144 0.28513
81 1 0.436293 0.488605 0.254377
133 1 0.437935 0.482982 0.27116
112 1 0.445649 0.467499 0.274703
83 1 0.437094 0.482359 0.224448
56 1 0.439924 0.477106 0.241274
58 1 0.448834 0.462057 0.244882
114 1 0.452859 0.458136 0.261473
116 1 0.466165 0.446443 0.265093
117 1 0.470144 0.442824 0.282032
118 1 0.485304 0.43401 0.28528
57 1 0.441512 0.471858 0.211326
59 1 0.452057 0.45835 0.214701
60 1 0.456208 0.454214 0.231236
61 1 0.470329 0.444519 0.234712
63 1 0.4756 0.4407 0.251085
65 1 0.491648 0.433578 0.254261
120 1 0.495809 0.430045 0.271512
7 1 0.46024 0.451232 0.201316
62 1 0.475333 0.442732 0.204763
64 1 0.48097 0.440103 0.221457
66 1 0.497815 0.435797 0.224566
113 1 0.449414 0.462406 0.291919
115 1 0.460992 0.449692 0.295795
67 1 0.503217 0.434603 0.241126
69 1 0.519955 0.437325 0.244353
123 1 0.526862 0.43719 0.260724
125 1 0.539845 0.448745 0.265393
126 1 0.542509 0.453644 0.282376
127 1 0.552963 0.467168 0.285715
68 1 0.508843 0.437191 0.211276
70 1 0.525856 0.441075 0.214447
71 1 0.530427 0.442637 0.231124
72 1 0.54371 0.453485 0.235368
74 1 0.547551 0.457291 0.252167
76 1 0.55633 0.472049 0.255563
129 1 0.557743 0.47721 0.272156
137 1 0.561996 0.49396 0.275143
18 1 0.535178 0.447148 0.201234
73 1 0.54765 0.457874 0.205188
75 1 0.551388 0.462269 0.222205
77 1 0.559392 0.477268 0.225381
84 1 0.560722 0.482712 0.242248
85 1 0.563217 0.488438 0.212194
122 1 0.520523 0.435147 0.293604
124 1 0.533397 0.446354 0.295933
149 1 0.496172 0.562891 0.265373
148 1 0.49046 0.563241 0.28225
147 1 0.473008 0.56017 0.285556
99 1 0.490837 0.563089 0.234808
98 1 0.48468 0.562121 0.25189
95 1 0.468448 0.556297 0.255559
145 1 0.463011 0.553716 0.272341
143 1 0.450704 0.541512 0.275408
97 1 0.485364 0.56134 0.204615
96 1 0.479763 0.560248 0.221323
94 1 0.464143 0.553379 0.224801
93 1 0.459446 0.54992 0.241534
91 1 0.447517 0.537637 0.244823
141 1 0.444422 0.532619 0.261884
134 1 0.437509 0.517061 0.265748
132 1 0.436681 0.511201 0.282099
92 1 0.455507 0.54585 0.211454
90 1 0.444495 0.531872 0.214464
89 1 0.441835 0.527341 0.231055
82 1 0.435926 0.511092 0.234452
80 1 0.435089 0.505794 0.251192
35 1 0.440094 0.521561 0.201025
79 1 0.435971 0.505 0.204643
78 1 0.43533 0.499328 0.221078
142 1 0.44782 0.537182 0.291874
140 1 0.439632 0.522223 0.295124
138 1 0.563208 0.505214 0.261396
159 1 0.55978 0.522457 0.264227
158 1 0.557746 0.527843 0.281051
157 1 0.547621 0.541879 0.284571
86 1 0.562387 0.510827 0.231675
110 1 0.556974 0.527304 0.235106
109 1 0.553917 0.532019 0.251136
106 1 0.543075 0.544861 0.254644
155 1 0.539055 0.54921 0.271023
153 1 0.524302 0.558132 0.274927
29 1 0.56186 0.517311 0.201758
108 1 0.554813 0.532964 0.2049
107 1 0.551545 0.537611 0.221927
105 1 0.539581 0.549732 0.224835
104 1 0.534766 0.553087 0.241408
102 1 0.519228 0.560323 0.244958
151 1 0.513423 0.561249 0.261846
103 1 0.530208 0.556237 0.21128
101 1 0.513977 0.561944 0.214938
100 1 0.508317 0.562797 0.23187
46 1 0.502762 0.563213 0.201559
88 1 0.563791 0.499639 0.245136
87 1 0.563796 0.506057 0.215175
139 1 0.563177 0.500284 0.291628
135 1 0.562166 0.517462 0.294261
152 1 0.519365 0.560524 0.291467
150 1 0.502655 0.564203 0.295185
237 1 0.439552 0.489918 0.395922
239 1 0.439856 0.483465 0.365948
214 1 0.442122 0.478291 0.38234
216 1 0.449706 0.462317 0.385607
184 1 0.436804 0.494682 0.332311
160 1 0.440569 0.477504 0.335675
161 1 0.44372 0.472258 0.352828
163 1 0.452445 0.457411 0.355798
218 1 0.455938 0.452235 0.37253
220 1 0.468989 0.441065 0.376409
221 1 0.474355 0.438553 0.392824
222 1 0.49118 0.434805 0.396491
131 1 0.436729 0.488371 0.3017
111 1 0.443156 0.472366 0.305215
162 1 0.445497 0.466858 0.322436
164 1 0.456525 0.453014 0.325842
165 1 0.45966 0.448892 0.342616
167 1 0.474208 0.439636 0.346052
169 1 0.479166 0.436137 0.362657
223 1 0.4963 0.434305 0.3665
166 1 0.465351 0.445468 0.312485
168 1 0.479735 0.437065 0.3157
170 1 0.485131 0.434755 0.332821
119 1 0.491105 0.432811 0.302411
225 1 0.501951 0.43537 0.383071
227 1 0.518099 0.440567 0.386448
171 1 0.50233 0.433397 0.337209
172 1 0.507718 0.435024 0.35391
174 1 0.523468 0.44198 0.356878
229 1 0.528343 0.445283 0.373337
231 1 0.542502 0.454994 0.37643
232 1 0.547104 0.457948 0.392722
233 1 0.558739 0.470683 0.396103
121 1 0.508584 0.432369 0.306473
173 1 0.513655 0.435485 0.323411
175 1 0.528696 0.444223 0.326205
176 1 0.533054 0.447724 0.342853
178 1 0.546072 0.458792 0.346023
180 1 0.550225 0.46333 0.36252
234 1 0.560104 0.477324 0.366083
242 1 0.564544 0.480555 0.382858
177 1 0.537498 0.451097 0.312425
179 1 0.549689 0.463403 0.315503
181 1 0.553462 0.467997 0.332482
187 1 0.560661 0.484107 0.335891
188 1 0.564269 0.489261 0.353065
128 1 0.555192 0.473325 0.302172
136 1 0.56162 0.489286 0.305299
190 1 0.563026 0.494809 0.321736
255 1 0.492371 0.565202 0.376248
254 1 0.486125 0.563648 0.393042
253 1 0.469538 0.558172 0.396103
201 1 0.48613 0.563169 0.345716
200 1 0.481158 0.562318 0.362611
251 1 0.465036 0.554618 0.365491
250 1 0.459851 0.551924 0.38222
248 1 0.447484 0.539461 0.38455
202 1 0.496861 0.564069 0.312202
199 1 0.479875 0.561292 0.315329
198 1 0.475126 0.559031 0.332384
197 1 0.460202 0.550385 0.335276
196 1 0.456306 0.547235 0.352038
194 1 0.444774 0.534216 0.355016
246 1 0.441923 0.529382 0.371345
238 1 0.437295 0.512921 0.375222
236 1 0.437753 0.507757 0.39254
146 1 0.468015 0.557157 0.302096
144 1 0.455174 0.546021 0.305491
195 1 0.451791 0.542076 0.321826
193 1 0.442409 0.527871 0.325114
192 1 0.441189 0.522962 0.342188