ITEM: TIMESTEP
0
ITEM: NUMBER OF ATOMS
6300
ITEM: BOX BOUNDS xy xz yz pp pp ff
-6.2210935024233933e+00 3.4221093502423280e+01 0.0000000000000000e+00
-4.3747707977204122e+00 3.2374770797720373e+01 0.0000000000000000e+00
-1.2130411000000000e+01 6.7869589000000005e+01 0.0000000000000000e+00
ITEM: ATOMS id type xs ys zs
79 1 0.0659823 0.216717 0.188794
80 1 0.0660434 0.179716 0.191809
91 1 0.0731984 0.156452 0.178187
92 1 0.08853 0.122544 0.180585
93 1 0.0902787 0.108157 0.197165
105 1 0.104588 0.105946 0.166731
106 1 0.129731 0.0813441 0.171352
107 1 0.136227 0.0703364 0.187745
108 1 0.166254 0.0527583 0.191462
119 1 0.190276 0.0526795 0.178068
78 1 0.0679824 0.232917 0.17268
120 1 0.222924 0.057402 0.182541
129 1 0.245589 0.0668726 0.170086
130 1 0.270648 0.0917956 0.174343
131 1 0.278474 0.0995406 0.191114
21 1 0.315742 0.218186 0.174228
132 1 0.298336 0.129624 0.195227
137 1 0.308348 0.155987 0.182506
138 1 0.313776 0.192343 0.186919
121 1 0.231614 0.0608086 0.199517
779 1 0.405599 0.242407 0.177119
780 1 0.403662 0.204649 0.179716
781 1 0.406948 0.190187 0.195885
791 1 0.409669 0.179628 0.166663
792 1 0.422232 0.144078 0.169621
793 1 0.426171 0.131588 0.186149
794 1 0.446935 0.102294 0.190088
805 1 0.437812 0.123893 0.156905
806 1 0.460249 0.0949515 0.160047
807 1 0.465577 0.0864863 0.177044
808 1 0.494004 0.0656043 0.181547
809 1 0.501477 0.0593926 0.198171
819 1 0.516232 0.0596043 0.169011
820 1 0.549807 0.0619736 0.172829
821 1 0.559865 0.0590911 0.189723
822 1 0.592856 0.0673991 0.194473
829 1 0.571983 0.0688905 0.160039
782 1 0.413674 0.153314 0.199154
830 1 0.605241 0.0746052 0.164495
831 1 0.61375 0.0807143 0.181956
832 1 0.63834 0.10654 0.186327
721 1 0.657317 0.190525 0.164266
722 1 0.650546 0.2273 0.16801
837 1 0.651414 0.128065 0.173399
838 1 0.657849 0.163577 0.177373
839 1 0.65764 0.175503 0.193825
840 1 0.65602 0.213943 0.197385
1479 1 0.733219 0.205793 0.156426
1480 1 0.729231 0.167087 0.159725
1481 1 0.73182 0.154971 0.17631
1482 1 0.743611 0.119705 0.17973
1491 1 0.733971 0.141636 0.146894
1492 1 0.750793 0.108471 0.150231
1493 1 0.756132 0.0984738 0.166737
1494 1 0.781628 0.0733912 0.170341
1505 1 0.763525 0.0875523 0.137246
723 1 0.650539 0.238748 0.184278
1466 1 0.737823 0.230434 0.169835
1478 1 0.735377 0.219892 0.140002
1467 1 0.73691 0.217804 0.186488
1506 1 0.791862 0.0655624 0.140686
1495 1 0.791141 0.0654563 0.187038
1468 1 0.731884 0.17867 0.189394
1483 1 0.750745 0.10921 0.196291
1484 1 0.7737 0.0817772 0.199962
1456 1 0.744284 0.241043 0.199851
1507 1 0.801561 0.0592834 0.157
1496 1 0.822996 0.0518316 0.190361
1508 1 0.834997 0.0478967 0.160451
1421 1 0.988178 0.219977 0.141729
1509 1 0.845958 0.0482097 0.177485
1510 1 0.878878 0.053722 0.181883
1519 1 0.858298 0.0474748 0.147808
1520 1 0.89069 0.0578713 0.152095
1521 1 0.900557 0.0628908 0.168493
1522 1 0.929086 0.083849 0.172176
1529 1 0.913618 0.0672165 0.139696
1530 1 0.941439 0.0912308 0.142431
1531 1 0.946687 0.101481 0.159223
1532 1 0.967247 0.132969 0.162761
1533 1 0.970622 0.144538 0.179493
1534 1 0.979093 0.180384 0.184062
1537 1 0.977629 0.157194 0.149939
1538 1 0.984365 0.194517 0.154491
1539 1 0.980953 0.205747 0.171127
1540 1 0.977238 0.242626 0.173878
1523 1 0.938166 0.0934025 0.189283
1524 1 0.959842 0.122712 0.19301
1511 1 0.889463 0.0573592 0.19826
50 1 0.185323 0.339184 0.176861
51 1 0.171913 0.335207 0.192753
52 1 0.139201 0.32512 0.195423
63 1 0.121088 0.310812 0.181939
64 1 0.0952781 0.287438 0.183863
65 1 0.0880058 0.274074 0.199656
77 1 0.0828328 0.267427 0.169842
3610 1 0.0122386 0.368152 0.196139
3620 1 0.0239986 0.368979 0.166884
3621 1 0.0354549 0.371585 0.183445
3622 1 0.0680548 0.382615 0.18707
3629 1 0.045697 0.373635 0.154061
3630 1 0.0775986 0.388768 0.15784
3631 1 0.0894365 0.392253 0.174322
3632 1 0.115997 0.415949 0.178624
3633 1 0.123899 0.422417 0.195594
3637 1 0.134567 0.435066 0.16554
3638 1 0.148818 0.469895 0.169014
3639 1 0.150472 0.479107 0.186368
3521 1 0.153561 0.494718 0.156229
3634 1 0.141584 0.455415 0.199258
22 1 0.312441 0.255185 0.178926
23 1 0.305668 0.264699 0.195462
35 1 0.270355 0.314749 0.185245
36 1 0.240391 0.331059 0.188693
49 1 0.219444 0.335625 0.174693
2192 1 0.247277 0.467219 0.18086
2193 1 0.24716 0.454281 0.197592
2205 1 0.259761 0.44635 0.167576
24 1 0.284769 0.296365 0.198619
2207 1 0.284193 0.405513 0.188399
2208 1 0.310807 0.382526 0.192664
2219 1 0.33196 0.373556 0.179235
2220 1 0.364663 0.372317 0.182977
2229 1 0.388596 0.378051 0.170075
2206 1 0.278575 0.415797 0.171199
778 1 0.404255 0.258597 0.161227
766 1 0.413626 0.264052 0.190727
2230 1 0.421716 0.38933 0.174291
751 1 0.524869 0.33734 0.180566
752 1 0.489659 0.332828 0.18308
763 1 0.468191 0.326605 0.169114
764 1 0.439147 0.30498 0.171687
765 1 0.431374 0.295604 0.188626
777 1 0.423726 0.288328 0.158117
2231 1 0.430677 0.39379 0.19099
2232 1 0.459259 0.411919 0.19639
2237 1 0.477264 0.43037 0.184185
2238 1 0.489699 0.465072 0.188446
736 1 0.589939 0.313553 0.176308
737 1 0.579046 0.319735 0.192052
738 1 0.545669 0.331446 0.194511
749 1 0.570337 0.324284 0.162506
750 1 0.53772 0.334379 0.164583
2880 1 0.576073 0.465735 0.157616
2881 1 0.578875 0.453554 0.174388
2882 1 0.596624 0.422496 0.17879
2891 1 0.587501 0.443603 0.144299
2868 1 0.570221 0.476655 0.187933
2121 1 0.492954 0.489176 0.175675
753 1 0.478422 0.326921 0.199481
2892 1 0.606907 0.412887 0.148361
2893 1 0.612791 0.404179 0.165307
2905 1 0.626637 0.396579 0.135754
735 1 0.618981 0.29254 0.173997
2894 1 0.6412 0.383294 0.169346
724 1 0.635276 0.273254 0.187192
2907 1 0.664834 0.375347 0.156515
2908 1 0.698102 0.374841 0.160937
2909 1 0.707516 0.374632 0.177695
2910 1 0.740309 0.385018 0.182168
2919 1 0.722917 0.382672 0.149055
2920 1 0.753707 0.394678 0.153668
2921 1 0.762931 0.394798 0.169951
2922 1 0.792868 0.41318 0.17456
2929 1 0.775829 0.405897 0.142099
1454 1 0.766113 0.285301 0.179865
1464 1 0.763026 0.274171 0.149667
1465 1 0.754052 0.263738 0.166453
1477 1 0.747583 0.254755 0.136516
2906 1 0.657335 0.378932 0.139232
2895 1 0.650983 0.379278 0.185823
1453 1 0.790342 0.312188 0.177404
1463 1 0.786041 0.304273 0.147306
2923 1 0.799072 0.420083 0.1914
2896 1 0.683869 0.370011 0.19024
2883 1 0.603195 0.41293 0.195434
2884 1 0.630199 0.391033 0.198865
2911 1 0.749946 0.386488 0.199234
1455 1 0.759798 0.274501 0.196548
1422 1 0.978243 0.256885 0.144312
1411 1 0.97172 0.25283 0.190615
2930 1 0.805239 0.423963 0.146431
2931 1 0.812618 0.42968 0.163122
2924 1 0.815925 0.450996 0.196464
1423 1 0.971696 0.268167 0.160564
1452 1 0.802261 0.319328 0.161138
2932 1 0.827982 0.462304 0.16756
2933 1 0.825633 0.475333 0.183653
2937 1 0.832458 0.487107 0.153555
1424 1 0.951174 0.297367 0.163859
1425 1 0.940231 0.304417 0.179586
1426 1 0.911187 0.324559 0.183246
1435 1 0.934902 0.313616 0.150105
1436 1 0.902517 0.327176 0.152629
1437 1 0.891082 0.331733 0.169498
1438 1 0.855602 0.335005 0.172435
1449 1 0.87982 0.33322 0.139186
1450 1 0.847248 0.336892 0.142704
1451 1 0.834068 0.331974 0.15853
3607 1 0.941598 0.401076 0.172177
3608 1 0.968657 0.378424 0.176139
3609 1 0.978021 0.376282 0.193037
3619 1 0.990415 0.367171 0.163779
3582 1 0.902291 0.476187 0.19463
3592 1 0.905675 0.464051 0.165438
3593 1 0.910149 0.452048 0.181776
3594 1 0.924741 0.419943 0.185538
3605 1 0.917388 0.443658 0.152374
3606 1 0.93816 0.413335 0.155061
1412 1 0.954227 0.285743 0.193155
1439 1 0.843309 0.333542 0.188735
1440 1 0.809833 0.324587 0.190984
3522 1 0.153973 0.532056 0.160042
3523 1 0.151442 0.542825 0.176444
3524 1 0.140912 0.578815 0.179903
3525 1 0.131895 0.589886 0.196307
3535 1 0.129343 0.598485 0.166826
3640 1 0.152488 0.517456 0.189875
4292 1 0.0839015 0.737898 0.165487
4293 1 0.0898374 0.725717 0.181638
4294 1 0.116801 0.702014 0.185211
4305 1 0.102505 0.723844 0.152505
4306 1 0.129373 0.701866 0.156153
4307 1 0.13837 0.691668 0.172183
4308 1 0.169398 0.676648 0.175539
4309 1 0.179813 0.675704 0.192127
4319 1 0.192825 0.675409 0.16227
3536 1 0.0994502 0.618346 0.169106
3537 1 0.087266 0.625756 0.184869
3538 1 0.0555216 0.641622 0.187836
3549 1 0.0814854 0.628891 0.154905
3550 1 0.0483615 0.6381 0.157442
3551 1 0.0349368 0.643548 0.173654
4282 1 0.0753836 0.746065 0.194425
3526 1 0.10627 0.614623 0.198669
2191 1 0.23178 0.5007 0.178607
2177 1 0.265565 0.600561 0.168771
2178 1 0.24205 0.572384 0.171529
2179 1 0.235907 0.561812 0.18804
2180 1 0.228549 0.525318 0.191371
4310 1 0.213071 0.681381 0.195847
4320 1 0.226057 0.687206 0.165767
4321 1 0.235015 0.692962 0.183472
4322 1 0.260331 0.717503 0.186726
4329 1 0.24357 0.704106 0.153248
2164 1 0.280433 0.619931 0.181923
2150 1 0.379032 0.640619 0.17584
2151 1 0.364763 0.644656 0.191763
2152 1 0.330065 0.645779 0.194112
2163 1 0.31161 0.634528 0.17969
4330 1 0.269719 0.726466 0.156477
4331 1 0.277509 0.736131 0.17322
2165 1 0.267728 0.612406 0.198538
2879 1 0.570595 0.504174 0.154144
2149 1 0.411484 0.63145 0.172641
2122 1 0.490117 0.52702 0.178686
2123 1 0.484071 0.539819 0.195134
2124 1 0.468872 0.573282 0.197151
2135 1 0.45637 0.593529 0.183853
2136 1 0.430094 0.618341 0.186381
4993 1 0.423051 0.734578 0.166633
4994 1 0.446003 0.706327 0.169863
5005 1 0.430241 0.724881 0.136637
5006 1 0.457466 0.699442 0.139935
5007 1 0.465996 0.695185 0.156614
5008 1 0.498488 0.685927 0.160852
5009 1 0.509598 0.682852 0.17739
5019 1 0.522101 0.68687 0.148087
4995 1 0.455382 0.699278 0.186677
2854 1 0.583699 0.585836 0.180032
2864 1 0.577969 0.577602 0.150198
2865 1 0.574139 0.564284 0.16627
2866 1 0.571116 0.527507 0.168077
2877 1 0.573104 0.556757 0.135624
2878 1 0.571981 0.519561 0.138135
5010 1 0.543237 0.687566 0.180999
5020 1 0.55487 0.691909 0.151186
5021 1 0.565982 0.695434 0.167981
5022 1 0.595142 0.714006 0.171355
5029 1 0.578723 0.697469 0.138327
2863 1 0.596459 0.60819 0.147349
2867 1 0.568862 0.514477 0.184938
4996 1 0.487357 0.685725 0.190782
4992 1 0.416183 0.745606 0.150067
4984 1 0.435875 0.716067 0.199973
2855 1 0.578841 0.574037 0.196196
2856 1 0.568669 0.538643 0.198366
5011 1 0.554296 0.691916 0.19749
4983 1 0.411588 0.742956 0.196462
2853 1 0.605063 0.615672 0.176966
5023 1 0.603384 0.721054 0.188102
5030 1 0.605344 0.723383 0.141747
5031 1 0.612326 0.732266 0.158506
2826 1 0.723512 0.635859 0.182244
2836 1 0.714573 0.636913 0.152712
2837 1 0.702664 0.641008 0.168854
2838 1 0.668798 0.642933 0.171666
2849 1 0.692499 0.642417 0.138713
2850 1 0.657473 0.645039 0.141692
2851 1 0.64573 0.638484 0.158163
2852 1 0.614421 0.623729 0.160034
2839 1 0.656856 0.643404 0.18847
2840 1 0.625291 0.629062 0.190411
2823 1 0.794407 0.590574 0.161882
2824 1 0.765813 0.612283 0.16338
2825 1 0.755592 0.620353 0.180186
2835 1 0.747407 0.625144 0.149577
5694 1 0.735234 0.746694 0.184025
5706 1 0.740802 0.735081 0.15472
5707 1 0.748544 0.724657 0.171271
2811 1 0.79961 0.582345 0.191739
2812 1 0.774689 0.608568 0.194152
5708 1 0.776112 0.702216 0.17477
5709 1 0.78745 0.698468 0.19111
5719 1 0.798497 0.693956 0.161858
2827 1 0.712239 0.638507 0.199225
2934 1 0.825625 0.513684 0.186825
3591 1 0.903555 0.501762 0.161721
2938 1 0.827394 0.52457 0.156983
2939 1 0.822793 0.537055 0.173192
2821 1 0.827282 0.551066 0.143642
2822 1 0.806773 0.581469 0.146323
2940 1 0.806934 0.570966 0.175425
3581 1 0.900416 0.513914 0.19159
3554 1 0.956117 0.628315 0.196178
3564 1 0.949015 0.623682 0.166218
3565 1 0.939275 0.614206 0.182796
3566 1 0.91541 0.586782 0.185242
3577 1 0.931525 0.609192 0.152486
3578 1 0.915149 0.576309 0.155782
3579 1 0.909504 0.564794 0.17204
3580 1 0.902558 0.527312 0.174707
3552 1 0.999164 0.644296 0.17606
3553 1 0.986313 0.643392 0.192778
3563 1 0.978375 0.640316 0.162302
5710 1 0.820811 0.690867 0.195361
5720 1 0.832798 0.689036 0.165335
5721 1 0.843289 0.686817 0.181932
5722 1 0.877699 0.689827 0.184771
5729 1 0.857405 0.687014 0.152335
5730 1 0.89062 0.692336 0.155167
5731 1 0.900901 0.69596 0.172083
5732 1 0.929309 0.714573 0.176323
5733 1 0.936618 0.723719 0.19283
5737 1 0.947216 0.731424 0.163704
4238 1 0.158973 0.96851 0.187858
4250 1 0.151329 0.971781 0.158014
4251 1 0.13814 0.968071 0.173905
4252 1 0.105141 0.954003 0.176996
4253 1 0.0947173 0.943795 0.19335
4254 1 0.0712459 0.91576 0.195552
4263 1 0.0879771 0.93803 0.163789
4264 1 0.0702718 0.905848 0.16591
4265 1 0.0620471 0.893066 0.182222
4266 1 0.0536749 0.85705 0.18502
4277 1 0.0638815 0.883238 0.152783
4278 1 0.0549349 0.847413 0.155622
4279 1 0.0540045 0.831079 0.171334
4280 1 0.0579531 0.793049 0.174659
4281 1 0.0612749 0.780566 0.191182
4291 1 0.0665232 0.769415 0.162106
4249 1 0.185614 0.970649 0.154712
4237 1 0.193346 0.966713 0.185141
4332 1 0.293908 0.769313 0.176954
4333 1 0.294068 0.783068 0.193724
4236 1 0.206797 0.967515 0.168764
4337 1 0.296108 0.795158 0.164533
4221 1 0.28966 0.855677 0.155263
4222 1 0.27795 0.890422 0.15863
4223 1 0.272497 0.903268 0.17548
4224 1 0.25356 0.933686 0.17908
4225 1 0.244141 0.94067 0.195474
4235 1 0.238705 0.953962 0.166514
4338 1 0.294996 0.831671 0.168388
4339 1 0.29489 0.844964 0.184962
4340 1 0.281533 0.879394 0.188845
4966 1 0.383437 0.863891 0.170663
4979 1 0.38456 0.839178 0.157609
4980 1 0.391818 0.801887 0.160393
4981 1 0.392539 0.787461 0.176921
4967 1 0.380088 0.848862 0.187277
4226 1 0.214914 0.960047 0.198589
4968 1 0.383572 0.810825 0.190191
4978 1 0.385476 0.853425 0.140615
4965 1 0.395169 0.899145 0.168288
4977 1 0.39591 0.888481 0.138827
4334 1 0.297379 0.820771 0.198077
4955 1 0.398886 0.908164 0.198196
4982 1 0.407893 0.754004 0.180034
4991 1 0.400594 0.779117 0.146754
4951 1 0.479291 0.961267 0.159304
4952 1 0.446525 0.950925 0.162585
4953 1 0.433457 0.945208 0.179084
4954 1 0.408226 0.91961 0.181886
4963 1 0.427344 0.93734 0.149258
4964 1 0.405951 0.908424 0.152444
4926 1 0.555193 0.950308 0.182876
4935 1 0.5749 0.935294 0.15008
4936 1 0.546211 0.951606 0.15357
4937 1 0.534924 0.959238 0.169517
4938 1 0.501151 0.965184 0.172683
4949 1 0.525492 0.9556 0.139812
4950 1 0.491217 0.957045 0.142946
4939 1 0.488431 0.964468 0.18916
4925 1 0.586543 0.931631 0.180019
4940 1 0.453117 0.956175 0.192862
4924 1 0.594981 0.922603 0.163373
4927 1 0.543497 0.952607 0.199148
5032 1 0.629789 0.763696 0.162646
5024 1 0.623095 0.750701 0.191879
5705 1 0.730921 0.770075 0.151238
5033 1 0.633554 0.774431 0.179208
5037 1 0.638196 0.787102 0.149503
5682 1 0.717591 0.805651 0.193395
5692 1 0.724003 0.795391 0.163861
5693 1 0.723323 0.781923 0.180439
4921 1 0.628073 0.845918 0.13976
4922 1 0.617046 0.88159 0.143396
4923 1 0.615125 0.893742 0.160622
5034 1 0.637213 0.811345 0.183055
5038 1 0.636451 0.823621 0.153259
5039 1 0.636176 0.836666 0.169699
5040 1 0.626367 0.873019 0.173175
5666 1 0.744834 0.912433 0.183834
5677 1 0.765567 0.928249 0.151019
5678 1 0.741889 0.901709 0.154382
5679 1 0.732916 0.891873 0.170747
5680 1 0.718501 0.857266 0.173619
5681 1 0.716223 0.843266 0.190093
5691 1 0.720539 0.83279 0.160044
4911 1 0.621487 0.88434 0.18997
5654 1 0.789012 0.952027 0.194556
5664 1 0.781965 0.943102 0.16475
5665 1 0.770504 0.938151 0.180643
4912 1 0.603513 0.915362 0.193323
5652 1 0.835383 0.965407 0.174982
5653 1 0.822494 0.964178 0.191593
5663 1 0.812739 0.960475 0.161633
5621 1 0.964634 0.786989 0.153784
5622 1 0.967515 0.825147 0.156116
5623 1 0.966294 0.840617 0.172606
5624 1 0.957989 0.878763 0.175446
5625 1 0.954715 0.891507 0.192047
5635 1 0.950859 0.902542 0.162489
5636 1 0.929479 0.931209 0.16518
5637 1 0.919024 0.938779 0.181858
5638 1 0.890001 0.957661 0.185708
5649 1 0.913585 0.951008 0.151639
5650 1 0.881982 0.965791 0.155534
5651 1 0.869833 0.966828 0.172032
5734 1 0.954813 0.75473 0.197204
5738 1 0.962541 0.76452 0.167527
5739 1 0.963425 0.776975 0.18376
5740 1 0.967917 0.815428 0.186334
5626 1 0.935876 0.923094 0.195618
81 1 0.0652459 0.163346 0.207366
94 1 0.113846 0.0805166 0.200738
109 1 0.175277 0.0487736 0.208439
82 1 0.075996 0.127008 0.211208
46 1 0.0637723 0.206499 0.281636
47 1 0.0618224 0.192986 0.297985
58 1 0.0642558 0.196502 0.250832
59 1 0.0660061 0.183932 0.267241
60 1 0.0682538 0.146063 0.270467
61 1 0.0694723 0.131594 0.286789
62 1 0.0833674 0.0987118 0.289701
68 1 0.0622769 0.187634 0.220964
69 1 0.0638483 0.172276 0.237329
70 1 0.0706779 0.13498 0.240868
71 1 0.0736839 0.121745 0.257307
72 1 0.0928927 0.092328 0.260201
73 1 0.0984766 0.0801082 0.276354
74 1 0.125664 0.0587936 0.280287
75 1 0.135418 0.0515203 0.297452
83 1 0.079123 0.112247 0.227577
84 1 0.099882 0.0820088 0.230503
85 1 0.108978 0.0742321 0.246607
86 1 0.138709 0.0564474 0.250858
87 1 0.148363 0.0511744 0.267411
88 1 0.18208 0.0443842 0.271086
89 1 0.191287 0.0444936 0.288037
95 1 0.119153 0.0693615 0.217373
96 1 0.150355 0.0521958 0.220926
97 1 0.161824 0.0495993 0.237744
98 1 0.195968 0.0486387 0.241483
67 1 0.0666622 0.225286 0.218679
66 1 0.0730531 0.239515 0.202427
45 1 0.0710143 0.242841 0.278803
56 1 0.0736789 0.247989 0.231998
57 1 0.0709459 0.233662 0.248319
99 1 0.205346 0.0484851 0.257861
139 1 0.314309 0.203133 0.204196
140 1 0.311515 0.239969 0.208567
110 1 0.208634 0.0507684 0.212248
111 1 0.219791 0.0532833 0.22886
122 1 0.261585 0.0802032 0.203825
133 1 0.300472 0.140896 0.212342
90 1 0.223906 0.0540634 0.291971
100 1 0.237373 0.0603636 0.262153
101 1 0.245605 0.0656109 0.279099
102 1 0.269041 0.0926269 0.28409
112 1 0.250554 0.071145 0.232866
113 1 0.257216 0.0759688 0.249826
123 1 0.268961 0.0889223 0.220899
134 1 0.311024 0.176565 0.216644
1 1 0.30536 0.220889 0.284399
5 1 0.306347 0.235326 0.254372
114 1 0.280353 0.103951 0.254163
115 1 0.283934 0.11447 0.271169
116 1 0.297294 0.149087 0.275376
117 1 0.300775 0.158387 0.292251
118 1 0.304592 0.194428 0.296823
124 1 0.290219 0.118401 0.224768
125 1 0.292347 0.127611 0.241523
126 1 0.305066 0.162379 0.245703
127 1 0.306308 0.174094 0.262613
128 1 0.308746 0.210278 0.267752
135 1 0.311108 0.186993 0.233321
136 1 0.309772 0.224563 0.2379
746 1 0.397464 0.234563 0.269694
747 1 0.393442 0.220901 0.286075
748 1 0.394354 0.183508 0.288943
759 1 0.396901 0.209547 0.256074
918 1 0.39737 0.244407 0.299847
758 1 0.40156 0.223328 0.239133
760 1 0.40052 0.172356 0.258913
761 1 0.402643 0.161973 0.27546
768 1 0.405665 0.213979 0.209882
769 1 0.402268 0.198081 0.226006
770 1 0.404396 0.16112 0.228775
762 1 0.415397 0.125952 0.278716
771 1 0.407356 0.147922 0.245485
783 1 0.415906 0.140353 0.215094
810 1 0.534352 0.0550784 0.202228
772 1 0.422508 0.113889 0.249637
773 1 0.429138 0.10497 0.266274
774 1 0.453993 0.0780744 0.270712
775 1 0.461401 0.0722821 0.287476
776 1 0.489668 0.054467 0.290918
784 1 0.43482 0.108689 0.219315
785 1 0.438164 0.0957373 0.236051
786 1 0.4642 0.0717325 0.240549
787 1 0.473253 0.0637209 0.256951
788 1 0.504945 0.0520008 0.261305
789 1 0.51451 0.049823 0.278109
795 1 0.453031 0.0914207 0.206898
796 1 0.478586 0.0677751 0.211189
797 1 0.487848 0.0629287 0.228159
798 1 0.520692 0.0532375 0.231865
945 1 0.41933 0.114284 0.295823
790 1 0.547907 0.0501097 0.283571
799 1 0.530091 0.0496634 0.248766
800 1 0.563513 0.0530384 0.253749
801 1 0.571934 0.0577901 0.270553
811 1 0.544793 0.0531349 0.219148
812 1 0.577967 0.0603907 0.223935
813 1 0.586454 0.0612302 0.241202
969 1 0.556978 0.0534976 0.299761
802 1 0.602936 0.0745143 0.275253
823 1 0.600944 0.0721725 0.211457
833 1 0.644599 0.113247 0.203341
803 1 0.609337 0.0818644 0.292031
814 1 0.614447 0.0834791 0.245471
815 1 0.619465 0.0920681 0.262103
834 1 0.654636 0.148904 0.206887
824 1 0.628715 0.0933114 0.216077
825 1 0.632923 0.10289 0.233004
701 1 0.648237 0.197795 0.273421
705 1 0.648757 0.210953 0.24338
711 1 0.651902 0.226068 0.214293
804 1 0.631189 0.11058 0.295209
816 1 0.63711 0.124628 0.266185
817 1 0.641829 0.134355 0.282885
818 1 0.646165 0.171622 0.286631
826 1 0.64597 0.136756 0.236486
827 1 0.645178 0.148045 0.253211
828 1 0.650658 0.185947 0.25715
835 1 0.654811 0.161428 0.223296
836 1 0.654828 0.199448 0.226977
1446 1 0.728177 0.206239 0.249027
1447 1 0.726675 0.192758 0.265756
1448 1 0.730594 0.156231 0.269203
1458 1 0.731281 0.193102 0.219043
1459 1 0.727415 0.18153 0.235763
1460 1 0.732845 0.143718 0.239713
1461 1 0.736184 0.131171 0.256064
1462 1 0.752967 0.0991735 0.259464
1469 1 0.731696 0.167438 0.20572
1470 1 0.739198 0.130883 0.209681
1471 1 0.743094 0.121585 0.226196
1472 1 0.762023 0.0899212 0.230236
1473 1 0.770515 0.081251 0.246583
1485 1 0.78106 0.0742705 0.216767
1645 1 0.761565 0.0923538 0.276445
702 1 0.640649 0.234038 0.276541
1457 1 0.739854 0.229734 0.216222
1618 1 0.728401 0.218715 0.279267
1631 1 0.733109 0.145105 0.285574
1632 1 0.748117 0.112499 0.289983
1474 1 0.799719 0.061937 0.25054
1646 1 0.788548 0.0684259 0.280045
1445 1 0.739321 0.24182 0.245762
1619 1 0.724949 0.20709 0.295484
1647 1 0.799095 0.0640105 0.297071
703 1 0.635746 0.245092 0.293579
706 1 0.637197 0.245581 0.247037
1620 1 0.727396 0.169362 0.299088
1475 1 0.809449 0.0592835 0.26741
1486 1 0.811025 0.054864 0.220793
1487 1 0.821355 0.0520493 0.238043
1497 1 0.833381 0.0515624 0.207205
1401 1 0.975453 0.22699 0.24965
1405 1 0.972986 0.239916 0.220599
1476 1 0.842804 0.0520999 0.271216
1488 1 0.855191 0.0488872 0.241605
1489 1 0.866405 0.0525082 0.258397
1490 1 0.899306 0.0607087 0.261196
1498 1 0.867017 0.04921 0.211229
1499 1 0.877102 0.0524248 0.227919
1500 1 0.908591 0.0687799 0.232095
1501 1 0.919431 0.0732499 0.248519
1502 1 0.9453 0.097734 0.252203
1503 1 0.951327 0.107053 0.268919
1504 1 0.966659 0.140987 0.272093
1512 1 0.919106 0.0774206 0.202068
1513 1 0.928593 0.0831121 0.218974
1514 1 0.952132 0.110892 0.222886
1515 1 0.959841 0.118098 0.239308
1516 1 0.975259 0.151769 0.242639
1517 1 0.974999 0.164471 0.259238
1518 1 0.97781 0.20155 0.262488
1525 1 0.965797 0.131798 0.209932
1526 1 0.979123 0.165648 0.213684
1527 1 0.980196 0.177411 0.230237
1528 1 0.978805 0.214634 0.233469
1535 1 0.981483 0.191778 0.200931
1536 1 0.97704 0.228324 0.204376
1561 1 0.976495 0.212686 0.278968
1562 1 0.965793 0.247696 0.282807
1669 1 0.908291 0.0654528 0.278545
1670 1 0.934964 0.0880589 0.282128
1659 1 0.853647 0.0500091 0.287981
1660 1 0.887243 0.0558853 0.291865
1677 1 0.970404 0.152003 0.289305
1678 1 0.978094 0.187391 0.292403
1671 1 0.942419 0.0971857 0.29927
38 1 0.19266 0.337849 0.206429
53 1 0.126607 0.319408 0.211487
54 1 0.0997451 0.293731 0.213237
17 1 0.195583 0.332658 0.283249
18 1 0.161201 0.330051 0.286057
29 1 0.186993 0.334674 0.253281
30 1 0.153429 0.3257 0.256036
31 1 0.141428 0.319653 0.272449
32 1 0.109859 0.302257 0.273961
33 1 0.101132 0.293779 0.290338
34 1 0.0786912 0.263912 0.292594
39 1 0.179764 0.339475 0.222843
40 1 0.145367 0.329922 0.225339
41 1 0.134647 0.319214 0.24137
42 1 0.105946 0.299382 0.243743
43 1 0.0935736 0.288545 0.259822
44 1 0.0758166 0.255629 0.262511
55 1 0.0906155 0.281667 0.229394
3590 1 0.0319896 0.367187 0.276642
3599 1 0.011518 0.371362 0.243128
3600 1 0.045177 0.370548 0.246507
3601 1 0.0547675 0.372489 0.263314
3611 1 0.0236952 0.370182 0.212909
3612 1 0.0578275 0.373668 0.21673
3613 1 0.0675937 0.377189 0.233836
3623 1 0.0795036 0.383494 0.203417
3769 1 0.0425318 0.366722 0.293207
3770 1 0.0749562 0.379655 0.297068
3602 1 0.0853327 0.386547 0.267605
3603 1 0.0945631 0.393033 0.284639
3604 1 0.119181 0.420068 0.288179
3614 1 0.0974631 0.3938 0.237881
3615 1 0.105689 0.399847 0.254555
3616 1 0.128174 0.429295 0.258618
3617 1 0.131545 0.441867 0.275286
3618 1 0.138092 0.478188 0.278745
3624 1 0.108158 0.401962 0.208053
3625 1 0.115897 0.409191 0.225002
3626 1 0.134937 0.441011 0.229001
3627 1 0.138621 0.452731 0.24604
3628 1 0.143263 0.489426 0.249077
3635 1 0.143263 0.466575 0.216186
3661 1 0.139718 0.48949 0.295402
3598 1 0.00115798 0.373922 0.226412
2221 1 0.37512 0.373168 0.200381
28 1 0.200351 0.337687 0.236893
37 1 0.226001 0.332715 0.204317
2194 1 0.265216 0.422069 0.201275
11 1 0.305847 0.250228 0.224716
2 1 0.294532 0.255905 0.287678
25 1 0.273199 0.301295 0.215365
2209 1 0.31895 0.375152 0.209027
2210 1 0.351948 0.368777 0.2133
6 1 0.290584 0.269063 0.257945
26 1 0.244909 0.32169 0.218097
2182 1 0.235768 0.475227 0.211294
8 1 0.258794 0.305407 0.27793
9 1 0.247536 0.310856 0.294661
10 1 0.216597 0.327902 0.297503
14 1 0.252774 0.314917 0.247785
15 1 0.241333 0.321449 0.264569
16 1 0.207909 0.331864 0.267039
27 1 0.233632 0.327733 0.234407
2160 1 0.223829 0.498241 0.270966
2161 1 0.223698 0.486341 0.286616
2162 1 0.237162 0.452102 0.291412
2170 1 0.229328 0.486027 0.240445
2171 1 0.229826 0.473924 0.257667
2172 1 0.244282 0.439839 0.261484
2173 1 0.25075 0.431042 0.278596
2183 1 0.237673 0.46185 0.227509
2184 1 0.254983 0.430167 0.231547
2185 1 0.259553 0.419092 0.248197
7 1 0.28417 0.278664 0.274442
12 1 0.287828 0.28219 0.22838
13 1 0.278336 0.290147 0.245
2174 1 0.273305 0.403848 0.281664
2175 1 0.280827 0.39576 0.29855
2186 1 0.284167 0.395376 0.252173
2187 1 0.293184 0.388557 0.268623
2188 1 0.323852 0.371164 0.271883
2189 1 0.332578 0.368399 0.28849
2190 1 0.366979 0.367074 0.293444
2196 1 0.296774 0.386565 0.221905
2197 1 0.304727 0.380149 0.23901
2198 1 0.336717 0.369065 0.242869
2199 1 0.34808 0.366363 0.259579
2200 1 0.380925 0.369717 0.263892
2201 1 0.389739 0.373193 0.280979
2211 1 0.361229 0.366812 0.229903
2212 1 0.394202 0.375668 0.23359
2195 1 0.271404 0.410967 0.218007
767 1 0.41031 0.250983 0.207104
2222 1 0.407424 0.384394 0.20374
2213 1 0.403669 0.377145 0.2505
2239 1 0.488843 0.477105 0.204951
757 1 0.411069 0.259762 0.237558
745 1 0.412772 0.268537 0.267218
917 1 0.415941 0.276945 0.297771
754 1 0.449348 0.307987 0.202523
2233 1 0.463971 0.421633 0.213648
726 1 0.597608 0.30619 0.206331
2234 1 0.481792 0.4529 0.217524
756 1 0.418833 0.272009 0.221157
2223 1 0.416948 0.385533 0.221254
718 1 0.520353 0.328516 0.274007
719 1 0.507583 0.328144 0.290411
720 1 0.474032 0.320203 0.292857
730 1 0.509349 0.329787 0.243747
731 1 0.497817 0.327803 0.260375
732 1 0.464209 0.317508 0.262759
733 1 0.453223 0.31177 0.279252
734 1 0.425559 0.287548 0.281477
739 1 0.534117 0.332343 0.211106
740 1 0.499971 0.33225 0.213226
741 1 0.48898 0.329187 0.229508
742 1 0.457975 0.31306 0.232717
743 1 0.446276 0.30715 0.248975
744 1 0.42103 0.280747 0.251391
755 1 0.440751 0.29974 0.219108
2202 1 0.420279 0.387474 0.285163
2214 1 0.433418 0.394552 0.255225
2215 1 0.441473 0.400007 0.272407
2216 1 0.463564 0.427799 0.276809
2217 1 0.466416 0.438023 0.293528
2218 1 0.477678 0.473957 0.296711
2224 1 0.444994 0.405059 0.226058
2225 1 0.451678 0.412011 0.242699
2226 1 0.473327 0.439645 0.247154
2227 1 0.474754 0.451902 0.264036
2228 1 0.480683 0.487828 0.267604
2235 1 0.48246 0.463736 0.234394
710 1 0.574504 0.314914 0.284927
715 1 0.594236 0.301672 0.252559
716 1 0.564837 0.319175 0.254919
717 1 0.554234 0.322744 0.271567
727 1 0.587299 0.309868 0.222598
728 1 0.556849 0.326572 0.224972
729 1 0.543774 0.327582 0.241238
2848 1 0.568502 0.446824 0.268107
2860 1 0.577221 0.43836 0.238017
2861 1 0.5823 0.426772 0.254872
2869 1 0.570228 0.462929 0.20413
2870 1 0.586662 0.430856 0.207937
2871 1 0.592092 0.421579 0.224254
3031 1 0.575014 0.43698 0.285347
3032 1 0.595315 0.408482 0.288158
2859 1 0.56433 0.473696 0.234604
2847 1 0.55975 0.482359 0.264758
2858 1 0.562712 0.485921 0.217655
2846 1 0.559036 0.495956 0.248289
3020 1 0.562771 0.459888 0.298646
3019 1 0.556213 0.49573 0.294895
709 1 0.603708 0.295874 0.282822
714 1 0.604387 0.294687 0.236305
2862 1 0.608258 0.403806 0.258361
2872 1 0.619547 0.398326 0.228115
3045 1 0.615649 0.394933 0.275585
725 1 0.624528 0.281522 0.203456
708 1 0.611314 0.285207 0.266227
2873 1 0.62958 0.393612 0.245476
2885 1 0.639224 0.383977 0.214794
704 1 0.618547 0.277788 0.296425
713 1 0.628892 0.268648 0.233732
2874 1 0.658201 0.376494 0.249622
707 1 0.631423 0.256102 0.263096
712 1 0.637927 0.260563 0.217037
2875 1 0.667612 0.372551 0.266706
2876 1 0.700868 0.369494 0.27183
2886 1 0.670272 0.370352 0.219555
2887 1 0.679839 0.369899 0.236453
2888 1 0.713789 0.370361 0.241171
2889 1 0.723044 0.374597 0.258433
2890 1 0.7546 0.387783 0.26334
2897 1 0.694762 0.368186 0.207078
2898 1 0.727762 0.374838 0.211762
2899 1 0.737455 0.377026 0.228318
2900 1 0.767492 0.394409 0.233497
2901 1 0.774245 0.4018 0.250446
2912 1 0.779947 0.403541 0.203786
2913 1 0.787139 0.410069 0.221013
3069 1 0.762021 0.395098 0.280341
1434 1 0.747118 0.266667 0.258931
1443 1 0.763082 0.285293 0.22638
1444 1 0.745669 0.25209 0.22967
1617 1 0.739318 0.254443 0.275456
3046 1 0.645239 0.377853 0.279813
3059 1 0.710177 0.369726 0.289193
3070 1 0.785274 0.421137 0.284175
1420 1 0.784204 0.311145 0.269789
1432 1 0.775854 0.30655 0.239749
1433 1 0.765827 0.297793 0.25613
1442 1 0.773629 0.293396 0.210087
2902 1 0.795192 0.430375 0.254744
2903 1 0.797687 0.441411 0.271464
1603 1 0.775358 0.301659 0.286098
3060 1 0.742416 0.380088 0.292661
1604 1 0.750198 0.277005 0.288318
1441 1 0.799256 0.317781 0.207533
3047 1 0.653575 0.373992 0.296867
1592 1 0.793732 0.315312 0.299973
2914 1 0.805523 0.44001 0.225995
2915 1 0.807668 0.453647 0.242181
1402 1 0.963209 0.26195 0.252877
2904 1 0.808628 0.477572 0.274819
2916 1 0.812862 0.490065 0.245602
2925 1 0.816212 0.46324 0.213148
3077 1 0.80871 0.489302 0.291253
1403 1 0.95702 0.27122 0.269655
1404 1 0.933515 0.298281 0.273031
1406 1 0.959829 0.274905 0.22327
1407 1 0.953551 0.284281 0.23993
1408 1 0.928364 0.309489 0.243049
1409 1 0.915818 0.314797 0.259656
1410 1 0.884488 0.329612 0.262031
1413 1 0.946511 0.293287 0.209989
1414 1 0.919391 0.317748 0.213362
1415 1 0.90981 0.324737 0.22964
1416 1 0.875594 0.334108 0.232077
1417 1 0.862225 0.334379 0.248466
1418 1 0.828654 0.329675 0.250875
1419 1 0.815164 0.326534 0.267143
1427 1 0.899204 0.329384 0.200241
1428 1 0.865608 0.334729 0.202772
1429 1 0.85377 0.335224 0.218726
1430 1 0.818895 0.329994 0.220738
1431 1 0.807411 0.323788 0.236899
1589 1 0.870817 0.328979 0.278266
1590 1 0.837128 0.330082 0.2812
3574 1 0.93608 0.406847 0.264848
3575 1 0.94334 0.395841 0.281461
3576 1 0.97388 0.378424 0.284941
3586 1 0.947528 0.398753 0.235027
3587 1 0.957398 0.392568 0.251917
3588 1 0.987655 0.374325 0.255668
3589 1 0.997218 0.371337 0.272427
3596 1 0.958014 0.388928 0.206247
3597 1 0.968202 0.386034 0.222751
3561 1 0.889929 0.490657 0.270935
3562 1 0.900501 0.455738 0.274272