ITEM: TIMESTEP
0
ITEM: NUMBER OF ATOMS
6300
ITEM: BOX BOUNDS xy xz yz pp pp ff
-3.8003050158360594e+01 1.9800305015836125e+02 0.0000000000000000e+00
-3.6984752359816156e+01 1.9698475235981567e+02 0.0000000000000000e+00
-1.2130411000000000e+01 6.7869589000000005e+01 0.0000000000000000e+00
ITEM: ATOMS id type xs ys zs
79 1 0.176375 0.171174 0.187525
80 1 0.176444 0.165417 0.191707
91 1 0.178304 0.161817 0.179457
92 1 0.181559 0.157133 0.184971
105 1 0.184885 0.154274 0.173225
106 1 0.189145 0.150736 0.179407
107 1 0.189864 0.149261 0.196508
119 1 0.19987 0.147819 0.192677
120 1 0.205559 0.1482 0.198241
129 1 0.209913 0.149727 0.186982
130 1 0.214355 0.153491 0.193689
791 1 0.456949 0.161137 0.185949
792 1 0.458873 0.155188 0.187242
805 1 0.459497 0.151885 0.172407
806 1 0.463876 0.147655 0.171929
780 1 0.457771 0.164953 0.199269
807 1 0.467015 0.146379 0.186913
808 1 0.472774 0.144329 0.187383
779 1 0.458818 0.170724 0.196532
819 1 0.475751 0.143393 0.172665
820 1 0.481887 0.143406 0.172321
821 1 0.484913 0.143873 0.188081
822 1 0.490565 0.145705 0.188877
829 1 0.484991 0.144486 0.15807
830 1 0.490406 0.146884 0.158556
831 1 0.49308 0.147695 0.174268
832 1 0.497594 0.151479 0.176541
833 1 0.499564 0.152833 0.192915
837 1 0.49878 0.155196 0.163025
722 1 0.498846 0.170726 0.160657
838 1 0.500051 0.160856 0.167916
839 1 0.501351 0.162538 0.184202
721 1 0.499332 0.165042 0.155124
840 1 0.501223 0.168318 0.189205
723 1 0.49928 0.172347 0.177642
834 1 0.50172 0.158288 0.197276
1481 1 0.803696 0.158173 0.166898
1482 1 0.806255 0.152768 0.169603
1491 1 0.803917 0.156817 0.136938
1492 1 0.80702 0.151707 0.138845
1493 1 0.808065 0.149631 0.155647
1494 1 0.812551 0.145751 0.158468
1505 1 0.809427 0.149036 0.12507
1506 1 0.814141 0.145456 0.128894
1507 1 0.815991 0.144113 0.145123
1508 1 0.821854 0.14292 0.147025
1479 1 0.802775 0.166364 0.148872
1480 1 0.80316 0.160482 0.151021
1495 1 0.8146 0.144676 0.174809
1509 1 0.824092 0.142625 0.163106
1467 1 0.803805 0.167972 0.178382
1496 1 0.820096 0.142761 0.177338
1468 1 0.80338 0.161941 0.181169
1478 1 0.802735 0.168663 0.132212
1519 1 0.82559 0.143529 0.132824
1466 1 0.803852 0.170063 0.16176
1483 1 0.807791 0.15115 0.186327
1484 1 0.811735 0.146724 0.188756
1456 1 0.804975 0.171574 0.192364
1497 1 0.822343 0.142176 0.193526
1469 1 0.803551 0.159795 0.197595
1510 1 0.829828 0.143729 0.165855
1520 1 0.831261 0.145147 0.136192
1521 1 0.833258 0.145489 0.152738
1522 1 0.838304 0.148232 0.156131
1529 1 0.834501 0.146894 0.122811
1530 1 0.839623 0.150044 0.125913
1531 1 0.841307 0.150815 0.143285
1532 1 0.844586 0.155886 0.147199
1533 1 0.845624 0.157267 0.163849
1534 1 0.846844 0.163103 0.16798
1537 1 0.845849 0.159734 0.134256
1538 1 0.846735 0.165563 0.138867
1539 1 0.846527 0.167179 0.155635
1421 1 0.845893 0.169636 0.126036
1523 1 0.840116 0.149139 0.173125
1524 1 0.844031 0.15347 0.177086
1511 1 0.831808 0.14401 0.18285
1535 1 0.846981 0.164602 0.185057
1512 1 0.836928 0.146587 0.186525
1536 1 0.845711 0.170253 0.189232
1498 1 0.82823 0.142592 0.196531
1525 1 0.845068 0.154976 0.193938
1526 1 0.847076 0.160517 0.19835
64 1 0.1818 0.181874 0.182725
77 1 0.180365 0.178503 0.169364
78 1 0.178037 0.173054 0.171718
52 1 0.188241 0.188466 0.196036
63 1 0.186258 0.186047 0.181601
51 1 0.193846 0.190647 0.195847
50 1 0.196501 0.191499 0.180652
36 1 0.205328 0.190797 0.196069
49 1 0.202464 0.191574 0.180748
65 1 0.179628 0.180392 0.198928
35 1 0.210787 0.188043 0.196139
21 1 0.219059 0.173629 0.192549
22 1 0.218812 0.179378 0.194451
764 1 0.464959 0.180717 0.188997
777 1 0.461122 0.17846 0.177072
778 1 0.458703 0.17308 0.179893
763 1 0.469186 0.18467 0.18527
752 1 0.473593 0.186136 0.196571
751 1 0.478925 0.18763 0.191904
750 1 0.479806 0.188526 0.174638
724 1 0.496698 0.177567 0.182935
735 1 0.493578 0.180934 0.171754
736 1 0.489304 0.184245 0.17764
737 1 0.488764 0.185123 0.195795
749 1 0.484992 0.186573 0.167008
1452 1 0.814658 0.183826 0.15273
1453 1 0.813036 0.182795 0.169561
1454 1 0.808943 0.17855 0.172617
1463 1 0.811389 0.181502 0.139872
1464 1 0.807273 0.177265 0.143374
1465 1 0.806269 0.175466 0.159558
1477 1 0.805324 0.174113 0.129583
1451 1 0.819889 0.186177 0.149737
1440 1 0.816434 0.184683 0.183526
1450 1 0.821678 0.187201 0.133272
1439 1 0.822091 0.186548 0.180251
1438 1 0.823925 0.186939 0.163431
1455 1 0.807903 0.176918 0.18955
1449 1 0.827549 0.187454 0.129848
1428 1 0.826078 0.186554 0.193449
1540 1 0.844995 0.172674 0.160477
1422 1 0.844373 0.175292 0.131005
1411 1 0.843949 0.174009 0.177334
1423 1 0.843559 0.176616 0.147925
1424 1 0.840103 0.181205 0.152049
1425 1 0.838614 0.18243 0.168737
1426 1 0.833566 0.185513 0.172812
1435 1 0.836563 0.183529 0.138994
1436 1 0.831353 0.186105 0.142779
1437 1 0.829762 0.186559 0.159465
1412 1 0.841172 0.178916 0.181524
1427 1 0.831854 0.186023 0.189373
1413 1 0.839711 0.18033 0.19794
2907 1 0.496422 0.479637 0.146872
2908 1 0.502071 0.47903 0.151819
2909 1 0.503519 0.480248 0.168273
2919 1 0.506314 0.479464 0.139166
2910 1 0.509049 0.482132 0.172478
2920 1 0.511612 0.481933 0.142657
2895 1 0.493411 0.481488 0.17588
2894 1 0.492249 0.481275 0.15837
2906 1 0.495286 0.479955 0.129433
2896 1 0.499208 0.480414 0.180464
2905 1 0.490327 0.482675 0.123964
2897 1 0.500498 0.481597 0.197201
3608 1 0.840027 0.481682 0.18734
3619 1 0.844129 0.480655 0.174866
3620 1 0.849676 0.479876 0.180926
3621 1 0.850891 0.479394 0.198129
3629 1 0.854142 0.480337 0.169621
3630 1 0.859694 0.481848 0.174324
3631 1 0.860788 0.48235 0.192016
2191 1 0.174289 0.504303 0.181548
2192 1 0.175381 0.498369 0.18316
2193 1 0.174959 0.496176 0.199701
2178 1 0.177466 0.516283 0.181239
2179 1 0.17527 0.513749 0.19596
2180 1 0.173142 0.508159 0.195157
2219 1 0.190817 0.484092 0.186854
2220 1 0.196436 0.483841 0.193931
2205 1 0.178616 0.495505 0.171122
2206 1 0.181754 0.490578 0.175256
2207 1 0.181678 0.488812 0.191931
2208 1 0.186027 0.485214 0.19718
2229 1 0.201217 0.484916 0.183459
2230 1 0.206187 0.486488 0.191141
2881 1 0.480283 0.491814 0.158794
2891 1 0.482237 0.489172 0.129876
2866 1 0.478046 0.502689 0.148154
2877 1 0.479457 0.505422 0.114918
2878 1 0.478254 0.499914 0.119563
2879 1 0.477802 0.498492 0.136383
2880 1 0.479737 0.4929 0.141902
2867 1 0.477524 0.501468 0.164947
2865 1 0.479493 0.508425 0.144168
2868 1 0.478003 0.49593 0.170409
2855 1 0.479378 0.511376 0.173079
2864 1 0.48095 0.509511 0.127443
2856 1 0.4775 0.505938 0.177575
2854 1 0.481031 0.512465 0.156204
2869 1 0.478262 0.494671 0.187951
2842 1 0.481059 0.515054 0.185694
2870 1 0.481223 0.489616 0.194055
2857 1 0.476761 0.504466 0.194462
2858 1 0.476779 0.498693 0.199555
2911 1 0.510335 0.48385 0.18902
2882 1 0.483737 0.487291 0.164535
2921 1 0.512933 0.483741 0.158999
2929 1 0.51469 0.483894 0.129197
2892 1 0.4865 0.485226 0.135766
2893 1 0.48716 0.48422 0.153275
2922 1 0.516944 0.487809 0.161887
2863 1 0.484142 0.514658 0.12373
2883 1 0.484329 0.486405 0.181972
2823 1 0.516673 0.516085 0.141421
2912 1 0.514952 0.487451 0.192484
2884 1 0.48919 0.483466 0.187392
2811 1 0.516843 0.515242 0.172033
2853 1 0.484476 0.517186 0.152829
2923 1 0.517985 0.489854 0.178683
2930 1 0.518278 0.488747 0.131204
2931 1 0.519132 0.490633 0.147835
2932 1 0.521235 0.496271 0.151297
2933 1 0.521952 0.498758 0.167862
2934 1 0.522055 0.504622 0.169152
2937 1 0.522221 0.499888 0.137309
2938 1 0.522247 0.505994 0.138544
2939 1 0.521404 0.508182 0.155017
2821 1 0.521764 0.509351 0.124387
2822 1 0.519134 0.514557 0.126693
2940 1 0.518737 0.513459 0.156263
2924 1 0.520703 0.495249 0.181124
2935 1 0.521187 0.507099 0.185245
2936 1 0.518592 0.51243 0.186374
2925 1 0.520683 0.497437 0.197757
2926 1 0.521372 0.503367 0.199462
3591 1 0.829521 0.501524 0.171852
3592 1 0.830615 0.495728 0.174762
3593 1 0.830161 0.493885 0.191468
3580 1 0.829318 0.505505 0.184924
3594 1 0.83246 0.488299 0.194981
3605 1 0.832296 0.49208 0.161897
3566 1 0.83256 0.514203 0.197342
3578 1 0.833314 0.512689 0.16721
3579 1 0.831376 0.510972 0.182657
3607 1 0.835602 0.485309 0.183171
3606 1 0.834909 0.486826 0.166422
3632 1 0.865311 0.485773 0.19749
3535 1 0.86862 0.514699 0.18917
3637 1 0.867614 0.489288 0.185607
3638 1 0.870256 0.494374 0.189873
3521 1 0.871669 0.49853 0.177852
3522 1 0.872739 0.503931 0.182908
3523 1 0.871753 0.505723 0.199599
2177 1 0.180852 0.52133 0.181505
2164 1 0.182646 0.523464 0.197062
2163 1 0.187813 0.526671 0.197609
2812 1 0.512803 0.51947 0.172617
2824 1 0.511907 0.519838 0.142073
2825 1 0.509853 0.521122 0.15855
2835 1 0.508869 0.521183 0.127623
2851 1 0.491134 0.521399 0.133749
2852 1 0.486134 0.518322 0.136514
2826 1 0.504286 0.522928 0.158899
2836 1 0.503174 0.52247 0.129264
2837 1 0.500639 0.522952 0.144837
2838 1 0.494669 0.522469 0.147647
2849 1 0.499587 0.522977 0.115294
2850 1 0.493612 0.521916 0.117257
2839 1 0.492506 0.522473 0.163378
2840 1 0.487235 0.519798 0.166423
2827 1 0.50181 0.52391 0.174781
2828 1 0.495903 0.524081 0.176769
2813 1 0.510718 0.521201 0.188357
2841 1 0.485342 0.519034 0.182525
2814 1 0.505219 0.52373 0.189228
2830 1 0.487971 0.521997 0.19568
2829 1 0.493435 0.524229 0.193222
3577 1 0.837072 0.517387 0.165914
3565 1 0.836542 0.518519 0.196785
3564 1 0.839089 0.519711 0.180803
3563 1 0.844201 0.522782 0.180301
3551 1 0.853543 0.524017 0.193815
3552 1 0.84742 0.523646 0.194745
3549 1 0.861584 0.521628 0.176951
3550 1 0.856269 0.524024 0.178109
3536 1 0.864263 0.519042 0.191142
4282 1 0.158443 0.811893 0.186835
4292 1 0.160964 0.809954 0.157546
4293 1 0.161774 0.808892 0.174916
4294 1 0.166552 0.805783 0.179835
4305 1 0.164336 0.807166 0.146247
4306 1 0.168957 0.803633 0.150525
4307 1 0.17041 0.803547 0.167733
4281 1 0.155847 0.817134 0.183027
4291 1 0.15774 0.815016 0.152693
4280 1 0.155386 0.818489 0.165377
4279 1 0.154025 0.824235 0.160853
4278 1 0.155184 0.825788 0.144024
4267 1 0.153087 0.826731 0.190042
4295 1 0.167961 0.805633 0.196852
4268 1 0.153626 0.820971 0.195251
4308 1 0.17614 0.803376 0.172088
4309 1 0.177717 0.804085 0.188654
4319 1 0.180362 0.803621 0.159745
4310 1 0.183299 0.80532 0.192674
4320 1 0.185704 0.805713 0.163318
4321 1 0.187239 0.806633 0.180065
4322 1 0.191968 0.810425 0.183727
4329 1 0.189543 0.807264 0.151001
4330 1 0.193753 0.81154 0.153986
4331 1 0.194798 0.813093 0.170603
4332 1 0.197421 0.818493 0.173602
4333 1 0.197156 0.820708 0.189933
4334 1 0.197473 0.826591 0.191958
4337 1 0.198258 0.822453 0.159594
4996 1 0.513012 0.827567 0.180518
4997 1 0.514664 0.827087 0.198228
4251 1 0.168749 0.846254 0.160645
4252 1 0.163312 0.843357 0.163492
4253 1 0.161254 0.842348 0.180326
4254 1 0.15722 0.837995 0.18305
4263 1 0.160843 0.840335 0.150497
4264 1 0.157879 0.835308 0.153867
4265 1 0.15595 0.834126 0.169932
4266 1 0.153856 0.828396 0.173402
4277 1 0.15703 0.831513 0.140772
4238 1 0.17219 0.84733 0.174445
4250 1 0.170977 0.84625 0.144441
4239 1 0.169888 0.846972 0.190716
4240 1 0.16434 0.844726 0.193878
4255 1 0.155723 0.836521 0.199469
4338 1 0.197822 0.828275 0.162117
4339 1 0.197257 0.830244 0.1787
4221 1 0.197399 0.832119 0.148807
4222 1 0.194486 0.837166 0.151181
4223 1 0.193475 0.839157 0.167333
4224 1 0.18929 0.843465 0.169295
4225 1 0.186823 0.844328 0.185193
4226 1 0.181445 0.847028 0.18634
4235 1 0.186354 0.845611 0.155115
4236 1 0.180525 0.847059 0.156331
4237 1 0.177929 0.847687 0.171914
4249 1 0.176938 0.847306 0.142026
4340 1 0.195228 0.835953 0.181336
4211 1 0.194055 0.838007 0.197762
4212 1 0.189706 0.842177 0.199069
5008 1 0.515833 0.8285 0.151319
4994 1 0.505938 0.830786 0.159636
5006 1 0.508499 0.830862 0.13051
5007 1 0.509961 0.829383 0.146608
4995 1 0.507229 0.829537 0.176678
4993 1 0.501484 0.834868 0.156148
5005 1 0.503656 0.834164 0.12734
4992 1 0.500655 0.83707 0.139601
4981 1 0.495707 0.842385 0.167599
4991 1 0.497304 0.841817 0.137884
4979 1 0.494727 0.850997 0.150981
4980 1 0.495457 0.844817 0.151681
4967 1 0.494303 0.852095 0.180945
4982 1 0.49874 0.837368 0.169981
4965 1 0.49673 0.860214 0.163425
4966 1 0.49484 0.854613 0.164983
4977 1 0.496373 0.85926 0.13308
4978 1 0.494719 0.85346 0.13482
4968 1 0.494333 0.845919 0.181714
4984 1 0.503675 0.831105 0.190058
4983 1 0.499475 0.83535 0.186651
4969 1 0.494575 0.843509 0.198404
4955 1 0.497055 0.861295 0.194425
4956 1 0.494776 0.855495 0.195606
5009 1 0.517476 0.827929 0.168546
5019 1 0.520355 0.82904 0.139482
5010 1 0.523212 0.829188 0.173208
5020 1 0.525837 0.830837 0.144851
5021 1 0.527206 0.831218 0.161653
5011 1 0.524299 0.829567 0.190919
5029 1 0.529418 0.833385 0.132617
5022 1 0.531692 0.834713 0.167521
5023 1 0.532254 0.835661 0.184465
5030 1 0.533774 0.837051 0.138574
5031 1 0.534739 0.838059 0.155385
5032 1 0.537101 0.843255 0.160816
5033 1 0.537169 0.844787 0.177679
5034 1 0.537399 0.850621 0.182444
5037 1 0.538568 0.847548 0.14946
5038 1 0.538136 0.853245 0.153048
5039 1 0.537306 0.854891 0.169912
4921 1 0.537871 0.857315 0.140174
5040 1 0.53567 0.860388 0.174578
5024 1 0.535761 0.840699 0.189689
4911 1 0.534311 0.861204 0.191847
5012 1 0.528966 0.832665 0.196628
5707 1 0.823304 0.842544 0.18304
5708 1 0.827539 0.838469 0.186434
5693 1 0.818668 0.851074 0.194358
5694 1 0.820534 0.845308 0.196828
5705 1 0.819885 0.850038 0.164964
5706 1 0.82267 0.844503 0.167004
5691 1 0.817969 0.859661 0.17788
5692 1 0.818564 0.8536 0.178757
5720 1 0.837229 0.83536 0.178867
5721 1 0.838509 0.834456 0.195612
5729 1 0.841742 0.835052 0.167024
5719 1 0.831651 0.83694 0.173863
5730 1 0.847219 0.836003 0.171778
5731 1 0.848657 0.836501 0.189012
5732 1 0.853491 0.839531 0.195594
5737 1 0.85643 0.84333 0.184231
5738 1 0.859033 0.848188 0.190533
5621 1 0.860707 0.852869 0.180653
5622 1 0.862211 0.85809 0.187368
4954 1 0.498486 0.863192 0.178345
4964 1 0.497494 0.862381 0.147533
4953 1 0.502631 0.867623 0.17687
4963 1 0.501789 0.866915 0.146835
4952 1 0.504499 0.869209 0.160993
4938 1 0.513328 0.872046 0.174116
4939 1 0.510971 0.871104 0.190105
4951 1 0.509809 0.871695 0.159788
4950 1 0.512057 0.872911 0.143861
4940 1 0.505398 0.869137 0.191712
4922 1 0.534852 0.862616 0.144479
4923 1 0.533951 0.86392 0.161335
4937 1 0.518971 0.872642 0.171808
4949 1 0.518015 0.873821 0.141507
4924 1 0.529739 0.867944 0.166059
4925 1 0.52808 0.868409 0.182636
4936 1 0.521322 0.873165 0.155545
4926 1 0.522452 0.870694 0.185233
4935 1 0.527102 0.871364 0.153158
4912 1 0.530733 0.865687 0.196513
5680 1 0.818106 0.862923 0.19308
5678 1 0.82229 0.871197 0.178234
5679 1 0.820546 0.868562 0.193419
5677 1 0.827143 0.874698 0.177219
5664 1 0.829701 0.876133 0.192561
5635 1 0.859756 0.869397 0.198241
5649 1 0.852674 0.876182 0.18901
5663 1 0.835246 0.878184 0.193045
5650 1 0.847254 0.878591 0.191134
60 1 0.172268 0.16247 0.270636
61 1 0.172156 0.160856 0.287453
46 1 0.170778 0.172369 0.279761
47 1 0.169878 0.170515 0.296375
58 1 0.171805 0.17023 0.250047
59 1 0.171041 0.168356 0.26666
48 1 0.170278 0.164577 0.29947
81 1 0.176135 0.163983 0.208574
62 1 0.175142 0.1559 0.293111
70 1 0.175066 0.160448 0.242227
71 1 0.175116 0.158987 0.259201
68 1 0.174499 0.167961 0.220917
69 1 0.173324 0.166092 0.237357
93 1 0.181643 0.155588 0.202214
108 1 0.19504 0.14744 0.203302
94 1 0.185432 0.151212 0.208165
82 1 0.178442 0.158637 0.213875
72 1 0.178704 0.154421 0.264821
73 1 0.178744 0.15313 0.281981
74 1 0.183645 0.150402 0.288789
83 1 0.178385 0.157049 0.230732
84 1 0.181972 0.152883 0.236523
85 1 0.182629 0.152008 0.25409
121 1 0.206076 0.149019 0.21621
86 1 0.187547 0.149248 0.260947
87 1 0.188284 0.149068 0.277789
95 1 0.186248 0.150396 0.225546
96 1 0.191361 0.14835 0.232772
109 1 0.195796 0.147365 0.22088
88 1 0.193763 0.148109 0.284349
97 1 0.192004 0.147939 0.250184
98 1 0.197602 0.147701 0.25603
110 1 0.201381 0.147945 0.227294
99 1 0.198426 0.148493 0.27324
100 1 0.203761 0.150543 0.279574
101 1 0.204252 0.15186 0.297076
111 1 0.202045 0.148661 0.244928
122 1 0.210783 0.151764 0.222486
112 1 0.206996 0.151593 0.250613
113 1 0.207753 0.152787 0.268113
114 1 0.211579 0.157098 0.273359
115 1 0.211628 0.159036 0.290061
123 1 0.211069 0.153506 0.239544
131 1 0.214079 0.154954 0.210622
137 1 0.218235 0.163915 0.201598
138 1 0.218453 0.169783 0.205655
132 1 0.2164 0.160373 0.214984
139 1 0.217731 0.171744 0.221868
133 1 0.216371 0.162245 0.231865
134 1 0.21715 0.167988 0.235339
116 1 0.213581 0.164462 0.294721
124 1 0.214299 0.15846 0.244383
125 1 0.214421 0.160346 0.261379
126 1 0.215903 0.166137 0.265356
127 1 0.215177 0.168499 0.281805
135 1 0.216693 0.170142 0.252121
793 1 0.46093 0.152999 0.202643
794 1 0.464977 0.148581 0.202376
781 1 0.458889 0.162554 0.214807
782 1 0.460102 0.15644 0.217026
760 1 0.462242 0.158697 0.276919
761 1 0.464069 0.156543 0.292588
762 1 0.466686 0.151063 0.293554
770 1 0.461219 0.15776 0.24684
771 1 0.462635 0.155225 0.262672
772 1 0.465582 0.150004 0.263448
773 1 0.468029 0.148201 0.278437
783 1 0.46163 0.154265 0.2326
784 1 0.465163 0.149463 0.232841
785 1 0.467485 0.147602 0.248525
746 1 0.463929 0.168325 0.288336
758 1 0.462168 0.167008 0.258947
759 1 0.462449 0.164663 0.275249
768 1 0.460158 0.165952 0.228118
769 1 0.460991 0.163601 0.244886
774 1 0.472811 0.144556 0.278857
795 1 0.467568 0.147412 0.218226
775 1 0.475143 0.142985 0.294803
786 1 0.472962 0.144647 0.248677
787 1 0.475777 0.143256 0.264007
796 1 0.472733 0.144231 0.217949
809 1 0.475733 0.143931 0.202875
797 1 0.475663 0.143201 0.233354
767 1 0.461376 0.17169 0.225599
810 1 0.481825 0.143323 0.2033
776 1 0.480916 0.141143 0.293931
788 1 0.481586 0.14186 0.264485
798 1 0.481616 0.142368 0.233625
789 1 0.484256 0.141231 0.279502
790 1 0.490131 0.141432 0.279856
799 1 0.484335 0.141784 0.249188
800 1 0.490323 0.142432 0.249423
801 1 0.493121 0.142908 0.264913
802 1 0.498418 0.145538 0.267026
803 1 0.500832 0.146147 0.283047
804 1 0.504377 0.150871 0.285829
811 1 0.484643 0.142841 0.218391
812 1 0.490283 0.144265 0.21946
813 1 0.493072 0.144348 0.235186
814 1 0.498307 0.147233 0.237103
815 1 0.500708 0.148245 0.253202
816 1 0.504077 0.153093 0.256049
823 1 0.493151 0.1461 0.205175
824 1 0.497934 0.149532 0.207099
825 1 0.500194 0.1504 0.223001
826 1 0.503048 0.155631 0.22651
969 1 0.492778 0.14174 0.295409
970 1 0.498331 0.14365 0.297025
711 1 0.501912 0.169885 0.206271
817 1 0.505536 0.154763 0.272678
818 1 0.507043 0.160306 0.276427
827 1 0.50469 0.157202 0.243426
835 1 0.503158 0.159876 0.214236
701 1 0.506442 0.164498 0.264068
705 1 0.504263 0.167064 0.234885
828 1 0.505455 0.162993 0.247158
836 1 0.503417 0.165782 0.217917
861 1 0.508038 0.161961 0.293281
862 1 0.507268 0.167699 0.298276
702 1 0.505195 0.170131 0.269115
703 1 0.5053 0.171476 0.286419
1448 1 0.804774 0.156893 0.260792
1460 1 0.804799 0.155291 0.230454
1461 1 0.805743 0.153228 0.24694
1462 1 0.809246 0.148341 0.249233
1470 1 0.805442 0.154053 0.200003
1471 1 0.806629 0.152201 0.216454
1472 1 0.810294 0.147501 0.218803
1473 1 0.81182 0.145787 0.235221
1474 1 0.817117 0.142994 0.238723
1475 1 0.81911 0.142198 0.255152
1485 1 0.813215 0.145144 0.204943
1486 1 0.818724 0.142558 0.207415
1487 1 0.820762 0.142019 0.224399
1645 1 0.81069 0.146959 0.26575
1646 1 0.815524 0.143425 0.268473
1446 1 0.803928 0.164765 0.241957
1447 1 0.803584 0.162735 0.25833
1458 1 0.803715 0.163656 0.211444
1459 1 0.8037 0.161161 0.227933
1631 1 0.805307 0.154836 0.276858
1476 1 0.824931 0.141339 0.258197
1618 1 0.803867 0.166484 0.271113
1632 1 0.808378 0.149683 0.279448
1457 1 0.804321 0.169372 0.208673
1647 1 0.817363 0.142252 0.285222
1488 1 0.82648 0.14203 0.227197
1445 1 0.80533 0.170526 0.239287
1648 1 0.823085 0.140954 0.288057
1619 1 0.803991 0.164413 0.287428
1620 1 0.804461 0.158472 0.290682
1659 1 0.826879 0.141219 0.274565
1633 1 0.809788 0.147995 0.295493
1634 1 0.814298 0.144211 0.29842
1489 1 0.828531 0.141962 0.244063
1490 1 0.834231 0.143519 0.246923
1499 1 0.830279 0.142785 0.213745
1500 1 0.83569 0.145069 0.216708
1501 1 0.837333 0.145918 0.233107
1502 1 0.841817 0.149689 0.237337
1503 1 0.843463 0.150762 0.254151
1504 1 0.846262 0.155946 0.258381
1513 1 0.838762 0.147608 0.202958
1514 1 0.843113 0.151516 0.20719
1515 1 0.844054 0.15294 0.224359
1516 1 0.846276 0.158256 0.228313
1517 1 0.846642 0.159929 0.24529
1518 1 0.847085 0.165781 0.249238
1527 1 0.847169 0.162147 0.215539
1669 1 0.836062 0.144157 0.263269
1670 1 0.841138 0.147352 0.266971
1401 1 0.846315 0.169771 0.236503
1405 1 0.845288 0.171845 0.206371
1528 1 0.846454 0.167967 0.219407
1561 1 0.846927 0.167271 0.266521
1677 1 0.847064 0.157389 0.275292
1660 1 0.832733 0.142391 0.277434
1678 1 0.847492 0.16319 0.279403
1671 1 0.842663 0.148456 0.283656
1672 1 0.845762 0.153422 0.287816
1661 1 0.834811 0.142728 0.294212
1662 1 0.839919 0.145465 0.296927
1679 1 0.84778 0.165038 0.296486
45 1 0.172318 0.17799 0.277025
66 1 0.176718 0.175209 0.201047
34 1 0.173501 0.181815 0.290639
44 1 0.174022 0.179636 0.261272
56 1 0.1752 0.177696 0.230842
57 1 0.173426 0.176068 0.246889
67 1 0.175038 0.173702 0.217032
54 1 0.180763 0.183976 0.213073
32 1 0.179491 0.187796 0.273068
33 1 0.176878 0.186865 0.289163
42 1 0.180112 0.185842 0.243227
43 1 0.177692 0.184469 0.258768
55 1 0.178255 0.182724 0.227992
37 1 0.202434 0.19125 0.211684
38 1 0.19666 0.19101 0.21146
53 1 0.185575 0.187697 0.212018
31 1 0.184917 0.19074 0.272531
40 1 0.187888 0.189722 0.227
41 1 0.184995 0.189245 0.242063
18 1 0.18744 0.192037 0.287851
30 1 0.187755 0.191249 0.257197
39 1 0.193745 0.191156 0.226109
26 1 0.205161 0.190158 0.227088
8 1 0.204913 0.189058 0.288792
14 1 0.205102 0.189207 0.257424
15 1 0.202398 0.1905 0.273008
16 1 0.196548 0.192209 0.272777
17 1 0.193558 0.192605 0.287787
27 1 0.202241 0.190353 0.242693
28 1 0.196579 0.191647 0.241825
29 1 0.193709 0.192059 0.256755
25 1 0.210723 0.187836 0.226476
7 1 0.209362 0.18518 0.287824
13 1 0.210506 0.186528 0.257551
23 1 0.216396 0.181452 0.210256
24 1 0.213052 0.186348 0.211253
128 1 0.21437 0.174254 0.284653
136 1 0.215938 0.176005 0.254592
140 1 0.216865 0.177805 0.224577
5 1 0.214307 0.178018 0.270915
6 1 0.212001 0.183546 0.272209
11 1 0.21544 0.179833 0.240537
12 1 0.212793 0.185166 0.241699
765 1 0.464673 0.178959 0.205354
766 1 0.461471 0.173955 0.20914
754 1 0.468162 0.181307 0.218024
734 1 0.469425 0.176433 0.297604
744 1 0.466666 0.175852 0.267461
745 1 0.466183 0.173964 0.284556
755 1 0.467705 0.179243 0.234465
756 1 0.463949 0.174758 0.238783
757 1 0.463963 0.172658 0.255909
733 1 0.473791 0.180452 0.292776
742 1 0.471535 0.181428 0.246994
743 1 0.470776 0.179923 0.263329
753 1 0.472769 0.184874 0.213263
732 1 0.474623 0.182015 0.275562
731 1 0.47983 0.184413 0.270682
740 1 0.47718 0.185788 0.225281
741 1 0.476243 0.184687 0.242579
730 1 0.48065 0.185472 0.253824
725 1 0.496606 0.178632 0.200412
738 1 0.483599 0.186869 0.202414
726 1 0.492867 0.182594 0.207008
718 1 0.484272 0.184859 0.282986
704 1 0.502683 0.17666 0.292959
706 1 0.50278 0.172742 0.240318
707 1 0.502743 0.174026 0.257348
708 1 0.499553 0.178734 0.263956
709 1 0.499288 0.17982 0.281718
710 1 0.494261 0.182808 0.28799
712 1 0.499758 0.175279 0.211608
713 1 0.499943 0.176587 0.229018
714 1 0.496411 0.181078 0.235134
715 1 0.495992 0.181915 0.25298
716 1 0.490991 0.184479 0.259317
717 1 0.489803 0.184541 0.276841
727 1 0.492398 0.183591 0.224205
728 1 0.487241 0.185737 0.23057
729 1 0.486421 0.185976 0.247759
739 1 0.482767 0.186533 0.219925
1420 1 0.813495 0.181276 0.263593
1431 1 0.816388 0.183875 0.230691
1432 1 0.811378 0.180607 0.233277
1433 1 0.810257 0.179106 0.249593
1434 1 0.806786 0.174384 0.252633
1441 1 0.814826 0.183493 0.200318
1442 1 0.810285 0.179602 0.203873
1443 1 0.808843 0.177855 0.220341
1444 1 0.806007 0.1726 0.222948
1617 1 0.805553 0.172446 0.269006
1603 1 0.811864 0.179873 0.279742
1419 1 0.818569 0.184099 0.260543
1430 1 0.818289 0.184896 0.213864
1604 1 0.807548 0.175676 0.282755
1418 1 0.820464 0.184757 0.243542
1590 1 0.822352 0.184792 0.2741
1429 1 0.824111 0.186013 0.210514
1591 1 0.820516 0.18403 0.29042
1417 1 0.826206 0.185454 0.240346
1592 1 0.814998 0.181918 0.293832
1605 1 0.806595 0.173594 0.299136
1402 1 0.843775 0.174961 0.240734
1403 1 0.84324 0.176498 0.257596
1404 1 0.83916 0.180522 0.261475
1406 1 0.842351 0.176779 0.210745
1407 1 0.841139 0.178052 0.227779
1408 1 0.837173 0.182079 0.232281
1409 1 0.835721 0.182958 0.249234
1410 1 0.830333 0.185065 0.253208
1414 1 0.835302 0.184119 0.202376
1415 1 0.833609 0.184512 0.219345
1416 1 0.827978 0.185545 0.223521
1562 1 0.845445 0.172911 0.270789
1589 1 0.828359 0.185239 0.270237
1575 1 0.837545 0.181502 0.279147
1576 1 0.832042 0.183949 0.283516
1563 1 0.844709 0.174599 0.28758
1564 1 0.840913 0.179127 0.292282
2188 1 0.184124 0.482062 0.277375
2189 1 0.184765 0.480708 0.294175
2198 1 0.188109 0.48254 0.249801
2199 1 0.1889 0.48167 0.267354
2200 1 0.194261 0.481989 0.274227
2201 1 0.194884 0.481635 0.291752
2211 1 0.192899 0.4826 0.240002
2886 1 0.496212 0.482013 0.209462
2887 1 0.497585 0.482509 0.226832
3622 1 0.856484 0.480509 0.203495
3609 1 0.841281 0.480865 0.204227
3610 1 0.846541 0.4792 0.210326
3587 1 0.835402 0.482709 0.263208
3576 1 0.837699 0.480183 0.297313
3588 1 0.840565 0.480281 0.268161
3589 1 0.842002 0.479446 0.285189
3597 1 0.838418 0.481886 0.233719
3598 1 0.843694 0.479653 0.239115
3590 1 0.84768 0.478737 0.290917
3599 1 0.844925 0.479286 0.25611
3600 1 0.850587 0.478863 0.261625
3601 1 0.851674 0.479329 0.278249
3611 1 0.847875 0.479113 0.226811
3612 1 0.85342 0.479838 0.232716
3613 1 0.854723 0.480256 0.250081
3623 1 0.857622 0.480964 0.220993
3602 1 0.857035 0.481027 0.284749
3614 1 0.859724 0.482656 0.255873
2181 1 0.171917 0.505707 0.210694
2160 1 0.168061 0.501409 0.272726
2161 1 0.166669 0.498646 0.288447
2162 1 0.168045 0.492855 0.290872
2170 1 0.169799 0.500554 0.242218
2171 1 0.169339 0.497868 0.258379
2172 1 0.171005 0.492302 0.261459
2173 1 0.170817 0.490037 0.277798
2183 1 0.171883 0.497181 0.228624
2145 1 0.170834 0.515911 0.286561
2146 1 0.168072 0.510652 0.28668
2157 1 0.17228 0.515537 0.256233
2158 1 0.169478 0.509968 0.256202
2159 1 0.168401 0.507302 0.271715
2168 1 0.171314 0.509195 0.225237
2169 1 0.169612 0.506561 0.241221
2175 1 0.174887 0.483675 0.298809
2213 1 0.198855 0.483308 0.264101
2166 1 0.176106 0.516845 0.211692
2182 1 0.172494 0.499785 0.212575
2174 1 0.17449 0.485397 0.282677
2184 1 0.174562 0.491848 0.232894
2185 1 0.174571 0.489831 0.249263
2167 1 0.173777 0.514805 0.226035
2194 1 0.177931 0.491253 0.204206
2231 1 0.206674 0.48693 0.208165
2187 1 0.178972 0.484055 0.271171
2221 1 0.196874 0.483688 0.211506
2209 1 0.186731 0.484482 0.21462
2197 1 0.182876 0.48424 0.243398
2210 1 0.192243 0.483222 0.221701
2212 1 0.198285 0.483225 0.246659
2196 1 0.182276 0.485316 0.225825
2186 1 0.17853 0.485658 0.254309
2195 1 0.177995 0.489289 0.220886
2222 1 0.202239 0.484902 0.218807
2223 1 0.202627 0.485158 0.236631
2202 1 0.199887 0.483752 0.299687
2214 1 0.203567 0.48608 0.271734
2215 1 0.204089 0.486617 0.289816
2224 1 0.206829 0.488386 0.243814
2225 1 0.206895 0.489284 0.261071
2121 1 0.217359 0.504269 0.200671
2232 1 0.210696 0.49071 0.215554
2233 1 0.210575 0.491747 0.232833
2216 1 0.207602 0.490951 0.296095
2227 1 0.209759 0.49523 0.285521
2106 1 0.2095 0.510636 0.283883
2113 1 0.209084 0.51468 0.270956
2237 1 0.213935 0.494476 0.20537
2238 1 0.21569 0.499864 0.211133
2122 1 0.21767 0.509871 0.206777
2123 1 0.216043 0.511365 0.222549
2124 1 0.213307 0.516695 0.224958
2239 1 0.21521 0.50121 0.228574
2240 1 0.215321 0.506952 0.234185
2234 1 0.213014 0.496799 0.239907
2226 1 0.210138 0.493951 0.267858
2235 1 0.212281 0.498155 0.256582
2105 1 0.211434 0.505322 0.279267
2111 1 0.213476 0.508174 0.250642
2112 1 0.21149 0.513693 0.254476
2228 1 0.210687 0.500731 0.290883
2236 1 0.212645 0.503676 0.26191
2848 1 0.477621 0.494552 0.251898
2860 1 0.479469 0.492209 0.222801
2861 1 0.480055 0.490985 0.239626
2871 1 0.482042 0.488455 0.211279
2834 1 0.477389 0.511696 0.237259
2844 1 0.477154 0.508849 0.207165
2845 1 0.476491 0.507424 0.224908
2846 1 0.475896 0.501699 0.229317
2847 1 0.476017 0.500223 0.246862
2859 1 0.476852 0.497383 0.217366
3017 1 0.475919 0.510384 0.253999
3018 1 0.475443 0.504338 0.259264
3031 1 0.477933 0.493137 0.269374
3032 1 0.481632 0.488875 0.274973
3019 1 0.47525 0.502826 0.276039
3004 1 0.476879 0.514463 0.267025
2843 1 0.479593 0.514138 0.20293
3020 1 0.476564 0.49742 0.281238
2833 1 0.479808 0.516967 0.232631
3005 1 0.475458 0.513028 0.283767
3006 1 0.474564 0.507047 0.288451
3033 1 0.482728 0.488388 0.291775
3021 1 0.476811 0.496222 0.298099
2994 1 0.477124 0.516843 0.296314
2874 1 0.493252 0.483293 0.238906
2875 1 0.494667 0.483532 0.255923
2876 1 0.500471 0.483654 0.260163
2888 1 0.503547 0.482943 0.231063
2889 1 0.504802 0.483919 0.247511
2898 1 0.506087 0.482887 0.201524
2899 1 0.50759 0.483779 0.21888
3059 1 0.50212 0.484627 0.276686
3048 1 0.497666 0.484852 0.288708
2890 1 0.509791 0.486651 0.251801
2900 1 0.512385 0.487251 0.222463
3069 1 0.511138 0.488316 0.268405
3060 1 0.5075 0.486802 0.28161
2862 1 0.484029 0.486882 0.24515
2901 1 0.513315 0.488626 0.238744
2913 1 0.515492 0.489446 0.209231
2872 1 0.486506 0.484875 0.216264
2873 1 0.487615 0.484519 0.233184
2885 1 0.490467 0.483235 0.204802
3045 1 0.485096 0.486277 0.262586
3046 1 0.490428 0.484524 0.267389
2902 1 0.516593 0.493559 0.241599
3070 1 0.51517 0.492552 0.271496
3047 1 0.491884 0.484684 0.284523
3071 1 0.515763 0.494679 0.288053
2805 1 0.517203 0.514648 0.202553
2961 1 0.516961 0.51342 0.26336
3061 1 0.508646 0.488293 0.297994
3034 1 0.487855 0.485855 0.297035
3079 1 0.51677 0.512646 0.293941
2903 1 0.517262 0.495783 0.257866
2914 1 0.518758 0.494428 0.211858
2915 1 0.519006 0.496732 0.22807
2904 1 0.518612 0.501596 0.260021
2916 1 0.52 0.502598 0.22998
2917 1 0.519418 0.505116 0.246188
2918 1 0.517847 0.510863 0.247986
2927 1 0.520279 0.505856 0.215309
2801 1 0.517369 0.514181 0.233005
2928 1 0.518731 0.511728 0.2173
3077 1 0.518295 0.504054 0.275923
3078 1 0.517761 0.510252 0.277864
3072 1 0.517609 0.500528 0.290164
3548 1 0.824047 0.501964 0.294482
3560 1 0.825107 0.50061 0.264691
3561 1 0.824215 0.498304 0.281106
3562 1 0.825305 0.492495 0.284445
3570 1 0.82681 0.499112 0.234568