LAMMPS data file. CGCMM style
 700 atoms
 1 atom types

 -40.000000 40.000000  xlo xhi
 -40.000000 40.000000  ylo yhi
 -12.130411 67.869589  zlo zhi

 Masses

 1 12.010700 # CA

 Atoms # molecular

1 1 5.162323 0.464617 8.843235 # CA CNT
2 1 4.852682 1.821242 9.111212 # CA CNT
3 1 4.669892 2.248901 10.451096 # CA CNT
4 1 3.903312 3.410221 10.719072 # CA CNT
5 1 5.099893 0.925494 6.431444 # CA CNT
6 1 4.669892 2.248901 6.699420 # CA CNT
7 1 4.449502 2.658454 8.039305 # CA CNT
8 1 3.581908 3.746382 8.307281 # CA CNT
9 1 3.231665 4.052381 9.647165 # CA CNT
10 1 2.037123 4.766086 9.915142 # CA CNT
11 1 4.996402 1.378919 4.019652 # CA CNT
12 1 4.449502 2.658454 4.287629 # CA CNT
13 1 4.193288 3.046602 5.627513 # CA CNT
14 1 3.231665 4.052381 5.895490 # CA CNT
15 1 2.855403 4.325751 7.235374 # CA CNT
16 1 1.601694 4.929506 7.503351 # CA CNT
17 1 1.153368 5.053236 8.843235 # CA CNT
18 1 -0.232543 5.177970 9.111212 # CA CNT
19 1 -0.695756 5.136280 10.451096 # CA CNT
20 1 -2.037123 4.766086 10.719072 # CA CNT
21 1 5.183189 0.000000 0.000000 # CA CNT
22 1 4.996402 1.378919 0.267977 # CA CNT
23 1 4.852682 1.821242 1.607861 # CA CNT
24 1 4.193288 3.046602 1.875838 # CA CNT
25 1 3.903312 3.410221 3.215722 # CA CNT
26 1 2.855403 4.325751 3.483699 # CA CNT
27 1 2.456151 4.564293 4.823583 # CA CNT
28 1 1.153368 5.053236 5.091559 # CA CNT
29 1 0.695756 5.136280 6.431444 # CA CNT
30 1 -0.695756 5.136280 6.699420 # CA CNT
31 1 -1.153368 5.053236 8.039305 # CA CNT
32 1 -2.456151 4.564293 8.307281 # CA CNT
33 1 -2.855403 4.325751 9.647165 # CA CNT
34 1 -3.903312 3.410221 9.915142 # CA CNT
35 1 3.581908 3.746382 0.803930 # CA CNT
36 1 2.456151 4.564293 1.071907 # CA CNT
37 1 2.037123 4.766086 2.411791 # CA CNT
38 1 0.695756 5.136280 2.679768 # CA CNT
39 1 0.232543 5.177970 4.019652 # CA CNT
40 1 -1.153368 5.053236 4.287629 # CA CNT
41 1 -1.601694 4.929506 5.627513 # CA CNT
42 1 -2.855403 4.325751 5.895490 # CA CNT
43 1 -3.231665 4.052381 7.235374 # CA CNT
44 1 -4.193288 3.046602 7.503351 # CA CNT
45 1 -4.449502 2.658454 8.843235 # CA CNT
46 1 -4.996402 1.378919 9.111212 # CA CNT
47 1 -5.099893 0.925494 10.451096 # CA CNT
48 1 -5.162323 -0.464617 10.719072 # CA CNT
49 1 1.601694 4.929506 0.000000 # CA CNT
50 1 0.232543 5.177970 0.267977 # CA CNT
51 1 -0.232543 5.177970 1.607861 # CA CNT
52 1 -1.601694 4.929506 1.875838 # CA CNT
53 1 -2.037123 4.766086 3.215722 # CA CNT
54 1 -3.231665 4.052381 3.483699 # CA CNT
55 1 -3.581908 3.746382 4.823583 # CA CNT
56 1 -4.449502 2.658454 5.091559 # CA CNT
57 1 -4.669892 2.248901 6.431444 # CA CNT
58 1 -5.099893 0.925494 6.699420 # CA CNT
59 1 -5.162323 0.464617 8.039305 # CA CNT
60 1 -5.099893 -0.925494 8.307281 # CA CNT
61 1 -4.996402 -1.378919 9.647165 # CA CNT
62 1 -4.449502 -2.658454 9.915142 # CA CNT
63 1 -2.456151 4.564293 0.803930 # CA CNT
64 1 -3.581908 3.746382 1.071907 # CA CNT
65 1 -3.903312 3.410221 2.411791 # CA CNT
66 1 -4.669892 2.248901 2.679768 # CA CNT
67 1 -4.852682 1.821242 4.019652 # CA CNT
68 1 -5.162323 0.464617 4.287629 # CA CNT
69 1 -5.183189 0.000000 5.627513 # CA CNT
70 1 -4.996402 -1.378919 5.895490 # CA CNT
71 1 -4.852682 -1.821242 7.235374 # CA CNT
72 1 -4.193288 -3.046602 7.503351 # CA CNT
73 1 -3.903312 -3.410221 8.843235 # CA CNT
74 1 -2.855403 -4.325751 9.111212 # CA CNT
75 1 -2.456151 -4.564293 10.451096 # CA CNT
76 1 -1.153368 -5.053236 10.719072 # CA CNT
77 1 -4.193288 3.046602 0.000000 # CA CNT
78 1 -4.852682 1.821242 0.267977 # CA CNT
79 1 -4.996402 1.378919 1.607861 # CA CNT
80 1 -5.183189 0.000000 1.875838 # CA CNT
81 1 -5.162323 -0.464617 3.215722 # CA CNT
82 1 -4.852682 -1.821242 3.483699 # CA CNT
83 1 -4.669892 -2.248901 4.823583 # CA CNT
84 1 -3.903312 -3.410221 5.091559 # CA CNT
85 1 -3.581908 -3.746382 6.431444 # CA CNT
86 1 -2.456151 -4.564293 6.699420 # CA CNT
87 1 -2.037123 -4.766086 8.039305 # CA CNT
88 1 -0.695756 -5.136280 8.307281 # CA CNT
89 1 -0.232543 -5.177970 9.647165 # CA CNT
90 1 1.153368 -5.053236 9.915142 # CA CNT
91 1 -5.099893 -0.925494 0.803930 # CA CNT
92 1 -4.669892 -2.248901 1.071907 # CA CNT
93 1 -4.449502 -2.658454 2.411791 # CA CNT
94 1 -3.581908 -3.746382 2.679768 # CA CNT
95 1 -3.231665 -4.052381 4.019652 # CA CNT
96 1 -2.037123 -4.766086 4.287629 # CA CNT
97 1 -1.601694 -4.929506 5.627513 # CA CNT
98 1 -0.232543 -5.177970 5.895490 # CA CNT
99 1 0.232543 -5.177970 7.235374 # CA CNT
100 1 1.601694 -4.929506 7.503351 # CA CNT
101 1 2.037123 -4.766086 8.843235 # CA CNT
102 1 3.231665 -4.052381 9.111212 # CA CNT
103 1 3.581908 -3.746382 10.451096 # CA CNT
104 1 4.449502 -2.658454 10.719072 # CA CNT
105 1 -4.193288 -3.046602 0.000000 # CA CNT
106 1 -3.231665 -4.052381 0.267977 # CA CNT
107 1 -2.855403 -4.325751 1.607861 # CA CNT
108 1 -1.601694 -4.929506 1.875838 # CA CNT
109 1 -1.153368 -5.053236 3.215722 # CA CNT
110 1 0.232543 -5.177970 3.483699 # CA CNT
111 1 0.695756 -5.136280 4.823583 # CA CNT
112 1 2.037123 -4.766086 5.091559 # CA CNT
113 1 2.456151 -4.564293 6.431444 # CA CNT
114 1 3.581908 -3.746382 6.699420 # CA CNT
115 1 3.903312 -3.410221 8.039305 # CA CNT
116 1 4.669892 -2.248901 8.307281 # CA CNT
117 1 4.852682 -1.821242 9.647165 # CA CNT
118 1 5.162323 -0.464617 9.915142 # CA CNT
119 1 -0.695756 -5.136280 0.803930 # CA CNT
120 1 0.695756 -5.136280 1.071907 # CA CNT
121 1 1.153368 -5.053236 2.411791 # CA CNT
122 1 2.456151 -4.564293 2.679768 # CA CNT
123 1 2.855403 -4.325751 4.019652 # CA CNT
124 1 3.903312 -3.410221 4.287629 # CA CNT
125 1 4.193288 -3.046602 5.627513 # CA CNT
126 1 4.852682 -1.821242 5.895490 # CA CNT
127 1 4.996402 -1.378919 7.235374 # CA CNT
128 1 5.183189 -0.000000 7.503351 # CA CNT
129 1 1.601694 -4.929506 0.000000 # CA CNT
130 1 2.855403 -4.325751 0.267977 # CA CNT
131 1 3.231665 -4.052381 1.607861 # CA CNT
132 1 4.193288 -3.046602 1.875838 # CA CNT
133 1 4.449502 -2.658454 3.215722 # CA CNT
134 1 4.996402 -1.378919 3.483699 # CA CNT
135 1 5.099893 -0.925494 4.823583 # CA CNT
136 1 5.162323 0.464617 5.091559 # CA CNT
137 1 4.669892 -2.248901 0.803930 # CA CNT
138 1 5.099893 -0.925494 1.071907 # CA CNT
139 1 5.162323 -0.464617 2.411791 # CA CNT
140 1 5.099893 0.925494 2.679768 # CA CNT
141 1 5.162323 0.464617 20.098261 # CA CNT
142 1 4.852682 1.821242 20.366238 # CA CNT
143 1 4.669892 2.248901 21.706121 # CA CNT
144 1 3.903312 3.410221 21.974098 # CA CNT
145 1 5.099893 0.925494 17.686470 # CA CNT
146 1 4.669892 2.248901 17.954447 # CA CNT
147 1 4.449502 2.658454 19.294331 # CA CNT
148 1 3.581908 3.746382 19.562307 # CA CNT
149 1 3.231665 4.052381 20.902191 # CA CNT
150 1 2.037123 4.766086 21.170168 # CA CNT
151 1 4.996402 1.378919 15.274678 # CA CNT
152 1 4.449502 2.658454 15.542655 # CA CNT
153 1 4.193288 3.046602 16.882540 # CA CNT
154 1 3.231665 4.052381 17.150517 # CA CNT
155 1 2.855403 4.325751 18.490400 # CA CNT
156 1 1.601694 4.929506 18.758377 # CA CNT
157 1 1.153368 5.053236 20.098261 # CA CNT
158 1 -0.232543 5.177970 20.366238 # CA CNT
159 1 -0.695756 5.136280 21.706121 # CA CNT
160 1 -2.037123 4.766086 21.974098 # CA CNT
161 1 5.183189 0.000000 11.255026 # CA CNT
162 1 4.996402 1.378919 11.523003 # CA CNT
163 1 4.852682 1.821242 12.862887 # CA CNT
164 1 4.193288 3.046602 13.130864 # CA CNT
165 1 3.903312 3.410221 14.470748 # CA CNT
166 1 2.855403 4.325751 14.738725 # CA CNT
167 1 2.456151 4.564293 16.078609 # CA CNT
168 1 1.153368 5.053236 16.346586 # CA CNT
169 1 0.695756 5.136280 17.686470 # CA CNT
170 1 -0.695756 5.136280 17.954447 # CA CNT
171 1 -1.153368 5.053236 19.294331 # CA CNT
172 1 -2.456151 4.564293 19.562307 # CA CNT
173 1 -2.855403 4.325751 20.902191 # CA CNT
174 1 -3.903312 3.410221 21.170168 # CA CNT
175 1 3.581908 3.746382 12.058956 # CA CNT
176 1 2.456151 4.564293 12.326933 # CA CNT
177 1 2.037123 4.766086 13.666818 # CA CNT
178 1 0.695756 5.136280 13.934794 # CA CNT
179 1 0.232543 5.177970 15.274678 # CA CNT
180 1 -1.153368 5.053236 15.542655 # CA CNT
181 1 -1.601694 4.929506 16.882540 # CA CNT
182 1 -2.855403 4.325751 17.150517 # CA CNT
183 1 -3.231665 4.052381 18.490400 # CA CNT
184 1 -4.193288 3.046602 18.758377 # CA CNT
185 1 -4.449502 2.658454 20.098261 # CA CNT
186 1 -4.996402 1.378919 20.366238 # CA CNT
187 1 -5.099893 0.925494 21.706121 # CA CNT
188 1 -5.162323 -0.464617 21.974098 # CA CNT
189 1 1.601694 4.929506 11.255026 # CA CNT
190 1 0.232543 5.177970 11.523003 # CA CNT
191 1 -0.232543 5.177970 12.862887 # CA CNT
192 1 -1.601694 4.929506 13.130864 # CA CNT
193 1 -2.037123 4.766086 14.470748 # CA CNT
194 1 -3.231665 4.052381 14.738725 # CA CNT
195 1 -3.581908 3.746382 16.078609 # CA CNT
196 1 -4.449502 2.658454 16.346586 # CA CNT
197 1 -4.669892 2.248901 17.686470 # CA CNT
198 1 -5.099893 0.925494 17.954447 # CA CNT
199 1 -5.162323 0.464617 19.294331 # CA CNT
200 1 -5.099893 -0.925494 19.562307 # CA CNT
201 1 -4.996402 -1.378919 20.902191 # CA CNT
202 1 -4.449502 -2.658454 21.170168 # CA CNT
203 1 -2.456151 4.564293 12.058956 # CA CNT
204 1 -3.581908 3.746382 12.326933 # CA CNT
205 1 -3.903312 3.410221 13.666818 # CA CNT
206 1 -4.669892 2.248901 13.934794 # CA CNT
207 1 -4.852682 1.821242 15.274678 # CA CNT
208 1 -5.162323 0.464617 15.542655 # CA CNT
209 1 -5.183189 0.000000 16.882540 # CA CNT
210 1 -4.996402 -1.378919 17.150517 # CA CNT
211 1 -4.852682 -1.821242 18.490400 # CA CNT
212 1 -4.193288 -3.046602 18.758377 # CA CNT
213 1 -3.903312 -3.410221 20.098261 # CA CNT
214 1 -2.855403 -4.325751 20.366238 # CA CNT
215 1 -2.456151 -4.564293 21.706121 # CA CNT
216 1 -1.153368 -5.053236 21.974098 # CA CNT
217 1 -4.193288 3.046602 11.255026 # CA CNT
218 1 -4.852682 1.821242 11.523003 # CA CNT
219 1 -4.996402 1.378919 12.862887 # CA CNT
220 1 -5.183189 0.000000 13.130864 # CA CNT
221 1 -5.162323 -0.464617 14.470748 # CA CNT
222 1 -4.852682 -1.821242 14.738725 # CA CNT
223 1 -4.669892 -2.248901 16.078609 # CA CNT
224 1 -3.903312 -3.410221 16.346586 # CA CNT
225 1 -3.581908 -3.746382 17.686470 # CA CNT
226 1 -2.456151 -4.564293 17.954447 # CA CNT
227 1 -2.037123 -4.766086 19.294331 # CA CNT
228 1 -0.695756 -5.136280 19.562307 # CA CNT
229 1 -0.232543 -5.177970 20.902191 # CA CNT
230 1 1.153368 -5.053236 21.170168 # CA CNT
231 1 -5.099893 -0.925494 12.058956 # CA CNT
232 1 -4.669892 -2.248901 12.326933 # CA CNT
233 1 -4.449502 -2.658454 13.666818 # CA CNT
234 1 -3.581908 -3.746382 13.934794 # CA CNT
235 1 -3.231665 -4.052381 15.274678 # CA CNT
236 1 -2.037123 -4.766086 15.542655 # CA CNT
237 1 -1.601694 -4.929506 16.882540 # CA CNT
238 1 -0.232543 -5.177970 17.150517 # CA CNT
239 1 0.232543 -5.177970 18.490400 # CA CNT
240 1 1.601694 -4.929506 18.758377 # CA CNT
241 1 2.037123 -4.766086 20.098261 # CA CNT
242 1 3.231665 -4.052381 20.366238 # CA CNT
243 1 3.581908 -3.746382 21.706121 # CA CNT
244 1 4.449502 -2.658454 21.974098 # CA CNT
245 1 -4.193288 -3.046602 11.255026 # CA CNT
246 1 -3.231665 -4.052381 11.523003 # CA CNT
247 1 -2.855403 -4.325751 12.862887 # CA CNT
248 1 -1.601694 -4.929506 13.130864 # CA CNT
249 1 -1.153368 -5.053236 14.470748 # CA CNT
250 1 0.232543 -5.177970 14.738725 # CA CNT
251 1 0.695756 -5.136280 16.078609 # CA CNT
252 1 2.037123 -4.766086 16.346586 # CA CNT
253 1 2.456151 -4.564293 17.686470 # CA CNT
254 1 3.581908 -3.746382 17.954447 # CA CNT
255 1 3.903312 -3.410221 19.294331 # CA CNT
256 1 4.669892 -2.248901 19.562307 # CA CNT
257 1 4.852682 -1.821242 20.902191 # CA CNT
258 1 5.162323 -0.464617 21.170168 # CA CNT
259 1 -0.695756 -5.136280 12.058956 # CA CNT
260 1 0.695756 -5.136280 12.326933 # CA CNT
261 1 1.153368 -5.053236 13.666818 # CA CNT
262 1 2.456151 -4.564293 13.934794 # CA CNT
263 1 2.855403 -4.325751 15.274678 # CA CNT
264 1 3.903312 -3.410221 15.542655 # CA CNT
265 1 4.193288 -3.046602 16.882540 # CA CNT
266 1 4.852682 -1.821242 17.150517 # CA CNT
267 1 4.996402 -1.378919 18.490400 # CA CNT
268 1 5.183189 -0.000000 18.758377 # CA CNT
269 1 1.601694 -4.929506 11.255026 # CA CNT
270 1 2.855403 -4.325751 11.523003 # CA CNT
271 1 3.231665 -4.052381 12.862887 # CA CNT
272 1 4.193288 -3.046602 13.130864 # CA CNT
273 1 4.449502 -2.658454 14.470748 # CA CNT
274 1 4.996402 -1.378919 14.738725 # CA CNT
275 1 5.099893 -0.925494 16.078609 # CA CNT
276 1 5.162323 0.464617 16.346586 # CA CNT
277 1 4.669892 -2.248901 12.058956 # CA CNT
278 1 5.099893 -0.925494 12.326933 # CA CNT
279 1 5.162323 -0.464617 13.666818 # CA CNT
280 1 5.099893 0.925494 13.934794 # CA CNT
281 1 5.162323 0.464617 31.353287 # CA CNT
282 1 4.852682 1.821242 31.621264 # CA CNT
283 1 4.669892 2.248901 32.961147 # CA CNT
284 1 3.903312 3.410221 33.229126 # CA CNT
285 1 5.099893 0.925494 28.941496 # CA CNT
286 1 4.669892 2.248901 29.209473 # CA CNT
287 1 4.449502 2.658454 30.549356 # CA CNT
288 1 3.581908 3.746382 30.817333 # CA CNT
289 1 3.231665 4.052381 32.157219 # CA CNT
290 1 2.037123 4.766086 32.425194 # CA CNT
291 1 4.996402 1.378919 26.529705 # CA CNT
292 1 4.449502 2.658454 26.797682 # CA CNT
293 1 4.193288 3.046602 28.137566 # CA CNT
294 1 3.231665 4.052381 28.405542 # CA CNT
295 1 2.855403 4.325751 29.745426 # CA CNT
296 1 1.601694 4.929506 30.013403 # CA CNT
297 1 1.153368 5.053236 31.353287 # CA CNT
298 1 -0.232543 5.177970 31.621264 # CA CNT
299 1 -0.695756 5.136280 32.961147 # CA CNT
300 1 -2.037123 4.766086 33.229126 # CA CNT
301 1 5.183189 0.000000 22.510052 # CA CNT
302 1 4.996402 1.378919 22.778028 # CA CNT
303 1 4.852682 1.821242 24.117912 # CA CNT
304 1 4.193288 3.046602 24.385889 # CA CNT
305 1 3.903312 3.410221 25.725775 # CA CNT
306 1 2.855403 4.325751 25.993752 # CA CNT
307 1 2.456151 4.564293 27.333635 # CA CNT
308 1 1.153368 5.053236 27.601612 # CA CNT
309 1 0.695756 5.136280 28.941496 # CA CNT
310 1 -0.695756 5.136280 29.209473 # CA CNT
311 1 -1.153368 5.053236 30.549356 # CA CNT
312 1 -2.456151 4.564293 30.817333 # CA CNT
313 1 -2.855403 4.325751 32.157219 # CA CNT
314 1 -3.903312 3.410221 32.425194 # CA CNT
315 1 3.581908 3.746382 23.313982 # CA CNT
316 1 2.456151 4.564293 23.581959 # CA CNT
317 1 2.037123 4.766086 24.921843 # CA CNT
318 1 0.695756 5.136280 25.189819 # CA CNT
319 1 0.232543 5.177970 26.529705 # CA CNT
320 1 -1.153368 5.053236 26.797682 # CA CNT
321 1 -1.601694 4.929506 28.137566 # CA CNT
322 1 -2.855403 4.325751 28.405542 # CA CNT
323 1 -3.231665 4.052381 29.745426 # CA CNT
324 1 -4.193288 3.046602 30.013403 # CA CNT
325 1 -4.449502 2.658454 31.353287 # CA CNT
326 1 -4.996402 1.378919 31.621264 # CA CNT
327 1 -5.099893 0.925494 32.961147 # CA CNT
328 1 -5.162323 -0.464617 33.229126 # CA CNT
329 1 1.601694 4.929506 22.510052 # CA CNT
330 1 0.232543 5.177970 22.778028 # CA CNT
331 1 -0.232543 5.177970 24.117912 # CA CNT
332 1 -1.601694 4.929506 24.385889 # CA CNT
333 1 -2.037123 4.766086 25.725775 # CA CNT
334 1 -3.231665 4.052381 25.993752 # CA CNT
335 1 -3.581908 3.746382 27.333635 # CA CNT
336 1 -4.449502 2.658454 27.601612 # CA CNT
337 1 -4.669892 2.248901 28.941496 # CA CNT
338 1 -5.099893 0.925494 29.209473 # CA CNT
339 1 -5.162323 0.464617 30.549356 # CA CNT
340 1 -5.099893 -0.925494 30.817333 # CA CNT
341 1 -4.996402 -1.378919 32.157219 # CA CNT
342 1 -4.449502 -2.658454 32.425194 # CA CNT
343 1 -2.456151 4.564293 23.313982 # CA CNT
344 1 -3.581908 3.746382 23.581959 # CA CNT
345 1 -3.903312 3.410221 24.921843 # CA CNT
346 1 -4.669892 2.248901 25.189819 # CA CNT
347 1 -4.852682 1.821242 26.529705 # CA CNT
348 1 -5.162323 0.464617 26.797682 # CA CNT
349 1 -5.183189 0.000000 28.137566 # CA CNT
350 1 -4.996402 -1.378919 28.405542 # CA CNT
351 1 -4.852682 -1.821242 29.745426 # CA CNT
352 1 -4.193288 -3.046602 30.013403 # CA CNT
353 1 -3.903312 -3.410221 31.353287 # CA CNT
354 1 -2.855403 -4.325751 31.621264 # CA CNT
355 1 -2.456151 -4.564293 32.961147 # CA CNT
356 1 -1.153368 -5.053236 33.229126 # CA CNT
357 1 -4.193288 3.046602 22.510052 # CA CNT
358 1 -4.852682 1.821242 22.778028 # CA CNT
359 1 -4.996402 1.378919 24.117912 # CA CNT
360 1 -5.183189 0.000000 24.385889 # CA CNT
361 1 -5.162323 -0.464617 25.725775 # CA CNT
362 1 -4.852682 -1.821242 25.993752 # CA CNT
363 1 -4.669892 -2.248901 27.333635 # CA CNT
364 1 -3.903312 -3.410221 27.601612 # CA CNT
365 1 -3.581908 -3.746382 28.941496 # CA CNT
366 1 -2.456151 -4.564293 29.209473 # CA CNT
367 1 -2.037123 -4.766086 30.549356 # CA CNT
368 1 -0.695756 -5.136280 30.817333 # CA CNT
369 1 -0.232543 -5.177970 32.157219 # CA CNT
370 1 1.153368 -5.053236 32.425194 # CA CNT
371 1 -5.099893 -0.925494 23.313982 # CA CNT
372 1 -4.669892 -2.248901 23.581959 # CA CNT
373 1 -4.449502 -2.658454 24.921843 # CA CNT
374 1 -3.581908 -3.746382 25.189819 # CA CNT
375 1 -3.231665 -4.052381 26.529705 # CA CNT
376 1 -2.037123 -4.766086 26.797682 # CA CNT
377 1 -1.601694 -4.929506 28.137566 # CA CNT
378 1 -0.232543 -5.177970 28.405542 # CA CNT
379 1 0.232543 -5.177970 29.745426 # CA CNT
380 1 1.601694 -4.929506 30.013403 # CA CNT
381 1 2.037123 -4.766086 31.353287 # CA CNT
382 1 3.231665 -4.052381 31.621264 # CA CNT
383 1 3.581908 -3.746382 32.961147 # CA CNT
384 1 4.449502 -2.658454 33.229126 # CA CNT
385 1 -4.193288 -3.046602 22.510052 # CA CNT
386 1 -3.231665 -4.052381 22.778028 # CA CNT
387 1 -2.855403 -4.325751 24.117912 # CA CNT
388 1 -1.601694 -4.929506 24.385889 # CA CNT
389 1 -1.153368 -5.053236 25.725775 # CA CNT
390 1 0.232543 -5.177970 25.993752 # CA CNT
391 1 0.695756 -5.136280 27.333635 # CA CNT
392 1 2.037123 -4.766086 27.601612 # CA CNT
393 1 2.456151 -4.564293 28.941496 # CA CNT
394 1 3.581908 -3.746382 29.209473 # CA CNT
395 1 3.903312 -3.410221 30.549356 # CA CNT
396 1 4.669892 -2.248901 30.817333 # CA CNT
397 1 4.852682 -1.821242 32.157219 # CA CNT
398 1 5.162323 -0.464617 32.425194 # CA CNT
399 1 -0.695756 -5.136280 23.313982 # CA CNT
400 1 0.695756 -5.136280 23.581959 # CA CNT
401 1 1.153368 -5.053236 24.921843 # CA CNT
402 1 2.456151 -4.564293 25.189819 # CA CNT
403 1 2.855403 -4.325751 26.529705 # CA CNT
404 1 3.903312 -3.410221 26.797682 # CA CNT
405 1 4.193288 -3.046602 28.137566 # CA CNT
406 1 4.852682 -1.821242 28.405542 # CA CNT
407 1 4.996402 -1.378919 29.745426 # CA CNT
408 1 5.183189 -0.000000 30.013403 # CA CNT
409 1 1.601694 -4.929506 22.510052 # CA CNT
410 1 2.855403 -4.325751 22.778028 # CA CNT
411 1 3.231665 -4.052381 24.117912 # CA CNT
412 1 4.193288 -3.046602 24.385889 # CA CNT
413 1 4.449502 -2.658454 25.725775 # CA CNT
414 1 4.996402 -1.378919 25.993752 # CA CNT
415 1 5.099893 -0.925494 27.333635 # CA CNT
416 1 5.162323 0.464617 27.601612 # CA CNT
417 1 4.669892 -2.248901 23.313982 # CA CNT
418 1 5.099893 -0.925494 23.581959 # CA CNT
419 1 5.162323 -0.464617 24.921843 # CA CNT
420 1 5.099893 0.925494 25.189819 # CA CNT
421 1 5.162323 0.464617 42.608315 # CA CNT
422 1 4.852682 1.821242 42.876289 # CA CNT
423 1 4.669892 2.248901 44.216175 # CA CNT
424 1 3.903312 3.410221 44.484150 # CA CNT
425 1 5.099893 0.925494 40.196522 # CA CNT
426 1 4.669892 2.248901 40.464497 # CA CNT
427 1 4.449502 2.658454 41.804382 # CA CNT
428 1 3.581908 3.746382 42.072361 # CA CNT
429 1 3.231665 4.052381 43.412243 # CA CNT
430 1 2.037123 4.766086 43.680222 # CA CNT
431 1 4.996402 1.378919 37.784729 # CA CNT
432 1 4.449502 2.658454 38.052708 # CA CNT
433 1 4.193288 3.046602 39.392590 # CA CNT
434 1 3.231665 4.052381 39.660568 # CA CNT
435 1 2.855403 4.325751 41.000454 # CA CNT
436 1 1.601694 4.929506 41.268429 # CA CNT
437 1 1.153368 5.053236 42.608315 # CA CNT
438 1 -0.232543 5.177970 42.876289 # CA CNT
439 1 -0.695756 5.136280 44.216175 # CA CNT
440 1 -2.037123 4.766086 44.484150 # CA CNT
441 1 5.183189 0.000000 33.765079 # CA CNT
442 1 4.996402 1.378919 34.033054 # CA CNT
443 1 4.852682 1.821242 35.372940 # CA CNT
444 1 4.193288 3.046602 35.640915 # CA CNT
445 1 3.903312 3.410221 36.980801 # CA CNT
446 1 2.855403 4.325751 37.248775 # CA CNT
447 1 2.456151 4.564293 38.588661 # CA CNT
448 1 1.153368 5.053236 38.856636 # CA CNT
449 1 0.695756 5.136280 40.196522 # CA CNT
450 1 -0.695756 5.136280 40.464497 # CA CNT
451 1 -1.153368 5.053236 41.804382 # CA CNT
452 1 -2.456151 4.564293 42.072361 # CA CNT
453 1 -2.855403 4.325751 43.412243 # CA CNT
454 1 -3.903312 3.410221 43.680222 # CA CNT
455 1 3.581908 3.746382 34.569008 # CA CNT
456 1 2.456151 4.564293 34.836987 # CA CNT
457 1 2.037123 4.766086 36.176868 # CA CNT
458 1 0.695756 5.136280 36.444847 # CA CNT
459 1 0.232543 5.177970 37.784729 # CA CNT
460 1 -1.153368 5.053236 38.052708 # CA CNT
461 1 -1.601694 4.929506 39.392590 # CA CNT
462 1 -2.855403 4.325751 39.660568 # CA CNT
463 1 -3.231665 4.052381 41.000454 # CA CNT
464 1 -4.193288 3.046602 41.268429 # CA CNT
465 1 -4.449502 2.658454 42.608315 # CA CNT
466 1 -4.996402 1.378919 42.876289 # CA CNT
467 1 -5.099893 0.925494 44.216175 # CA CNT
468 1 -5.162323 -0.464617 44.484150 # CA CNT
469 1 1.601694 4.929506 33.765079 # CA CNT
470 1 0.232543 5.177970 34.033054 # CA CNT
471 1 -0.232543 5.177970 35.372940 # CA CNT
472 1 -1.601694 4.929506 35.640915 # CA CNT
473 1 -2.037123 4.766086 36.980801 # CA CNT
474 1 -3.231665 4.052381 37.248775 # CA CNT
475 1 -3.581908 3.746382 38.588661 # CA CNT
476 1 -4.449502 2.658454 38.856636 # CA CNT
477 1 -4.669892 2.248901 40.196522 # CA CNT
478 1 -5.099893 0.925494 40.464497 # CA CNT
479 1 -5.162323 0.464617 41.804382 # CA CNT
480 1 -5.099893 -0.925494 42.072361 # CA CNT
481 1 -4.996402 -1.378919 43.412243 # CA CNT
482 1 -4.449502 -2.658454 43.680222 # CA CNT
483 1 -2.456151 4.564293 34.569008 # CA CNT
484 1 -3.581908 3.746382 34.836987 # CA CNT
485 1 -3.903312 3.410221 36.176868 # CA CNT
486 1 -4.669892 2.248901 36.444847 # CA CNT
487 1 -4.852682 1.821242 37.784729 # CA CNT
488 1 -5.162323 0.464617 38.052708 # CA CNT
489 1 -5.183189 0.000000 39.392590 # CA CNT
490 1 -4.996402 -1.378919 39.660568 # CA CNT
491 1 -4.852682 -1.821242 41.000454 # CA CNT
492 1 -4.193288 -3.046602 41.268429 # CA CNT
493 1 -3.903312 -3.410221 42.608315 # CA CNT
494 1 -2.855403 -4.325751 42.876289 # CA CNT
495 1 -2.456151 -4.564293 44.216175 # CA CNT
496 1 -1.153368 -5.053236 44.484150 # CA CNT
497 1 -4.193288 3.046602 33.765079 # CA CNT
498 1 -4.852682 1.821242 34.033054 # CA CNT
499 1 -4.996402 1.378919 35.372940 # CA CNT
500 1 -5.183189 0.000000 35.640915 # CA CNT
501 1 -5.162323 -0.464617 36.980801 # CA CNT
502 1 -4.852682 -1.821242 37.248775 # CA CNT
503 1 -4.669892 -2.248901 38.588661 # CA CNT
504 1 -3.903312 -3.410221 38.856636 # CA CNT
505 1 -3.581908 -3.746382 40.196522 # CA CNT
506 1 -2.456151 -4.564293 40.464497 # CA CNT
507 1 -2.037123 -4.766086 41.804382 # CA CNT
508 1 -0.695756 -5.136280 42.072361 # CA CNT
509 1 -0.232543 -5.177970 43.412243 # CA CNT
510 1 1.153368 -5.053236 43.680222 # CA CNT
511 1 -5.099893 -0.925494 34.569008 # CA CNT
512 1 -4.669892 -2.248901 34.836987 # CA CNT
513 1 -4.449502 -2.658454 36.176868 # CA CNT
514 1 -3.581908 -3.746382 36.444847 # CA CNT
515 1 -3.231665 -4.052381 37.784729 # CA CNT
516 1 -2.037123 -4.766086 38.052708 # CA CNT
517 1 -1.601694 -4.929506 39.392590 # CA CNT
518 1 -0.232543 -5.177970 39.660568 # CA CNT
519 1 0.232543 -5.177970 41.000454 # CA CNT
520 1 1.601694 -4.929506 41.268429 # CA CNT
521 1 2.037123 -4.766086 42.608315 # CA CNT
522 1 3.231665 -4.052381 42.876289 # CA CNT
523 1 3.581908 -3.746382 44.216175 # CA CNT
524 1 4.449502 -2.658454 44.484150 # CA CNT
525 1 -4.193288 -3.046602 33.765079 # CA CNT
526 1 -3.231665 -4.052381 34.033054 # CA CNT
527 1 -2.855403 -4.325751 35.372940 # CA CNT
528 1 -1.601694 -4.929506 35.640915 # CA CNT
529 1 -1.153368 -5.053236 36.980801 # CA CNT
530 1 0.232543 -5.177970 37.248775 # CA CNT
531 1 0.695756 -5.136280 38.588661 # CA CNT
532 1 2.037123 -4.766086 38.856636 # CA CNT
533 1 2.456151 -4.564293 40.196522 # CA CNT
534 1 3.581908 -3.746382 40.464497 # CA CNT
535 1 3.903312 -3.410221 41.804382 # CA CNT
536 1 4.669892 -2.248901 42.072361 # CA CNT
537 1 4.852682 -1.821242 43.412243 # CA CNT
538 1 5.162323 -0.464617 43.680222 # CA CNT
539 1 -0.695756 -5.136280 34.569008 # CA CNT
540 1 0.695756 -5.136280 34.836987 # CA CNT
541 1 1.153368 -5.053236 36.176868 # CA CNT
542 1 2.456151 -4.564293 36.444847 # CA CNT
543 1 2.855403 -4.325751 37.784729 # CA CNT
544 1 3.903312 -3.410221 38.052708 # CA CNT
545 1 4.193288 -3.046602 39.392590 # CA CNT
546 1 4.852682 -1.821242 39.660568 # CA CNT
547 1 4.996402 -1.378919 41.000454 # CA CNT
548 1 5.183189 -0.000000 41.268429 # CA CNT
549 1 1.601694 -4.929506 33.765079 # CA CNT
550 1 2.855403 -4.325751 34.033054 # CA CNT
551 1 3.231665 -4.052381 35.372940 # CA CNT
552 1 4.193288 -3.046602 35.640915 # CA CNT
553 1 4.449502 -2.658454 36.980801 # CA CNT
554 1 4.996402 -1.378919 37.248775 # CA CNT
555 1 5.099893 -0.925494 38.588661 # CA CNT
556 1 5.162323 0.464617 38.856636 # CA CNT
557 1 4.669892 -2.248901 34.569008 # CA CNT
558 1 5.099893 -0.925494 34.836987 # CA CNT
559 1 5.162323 -0.464617 36.176868 # CA CNT
560 1 5.099893 0.925494 36.444847 # CA CNT
561 1 5.162323 0.464617 53.863338 # CA CNT
562 1 4.852682 1.821242 54.131317 # CA CNT
563 1 4.669892 2.248901 55.471199 # CA CNT
564 1 3.903312 3.410221 55.739178 # CA CNT
565 1 5.099893 0.925494 51.451550 # CA CNT
566 1 4.669892 2.248901 51.719524 # CA CNT
567 1 4.449502 2.658454 53.059410 # CA CNT
568 1 3.581908 3.746382 53.327385 # CA CNT
569 1 3.231665 4.052381 54.667271 # CA CNT
570 1 2.037123 4.766086 54.935246 # CA CNT
571 1 4.996402 1.378919 49.039757 # CA CNT
572 1 4.449502 2.658454 49.307732 # CA CNT
573 1 4.193288 3.046602 50.647617 # CA CNT
574 1 3.231665 4.052381 50.915596 # CA CNT
575 1 2.855403 4.325751 52.255478 # CA CNT
576 1 1.601694 4.929506 52.523457 # CA CNT
577 1 1.153368 5.053236 53.863338 # CA CNT
578 1 -0.232543 5.177970 54.131317 # CA CNT
579 1 -0.695756 5.136280 55.471199 # CA CNT
580 1 -2.037123 4.766086 55.739178 # CA CNT
581 1 5.183189 0.000000 45.020103 # CA CNT
582 1 4.996402 1.378919 45.288082 # CA CNT
583 1 4.852682 1.821242 46.627964 # CA CNT
584 1 4.193288 3.046602 46.895943 # CA CNT
585 1 3.903312 3.410221 48.235825 # CA CNT
586 1 2.855403 4.325751 48.503803 # CA CNT
587 1 2.456151 4.564293 49.843685 # CA CNT
588 1 1.153368 5.053236 50.111664 # CA CNT
589 1 0.695756 5.136280 51.451550 # CA CNT
590 1 -0.695756 5.136280 51.719524 # CA CNT
591 1 -1.153368 5.053236 53.059410 # CA CNT
592 1 -2.456151 4.564293 53.327385 # CA CNT
593 1 -2.855403 4.325751 54.667271 # CA CNT
594 1 -3.903312 3.410221 54.935246 # CA CNT
595 1 3.581908 3.746382 45.824036 # CA CNT
596 1 2.456151 4.564293 46.092010 # CA CNT
597 1 2.037123 4.766086 47.431896 # CA CNT
598 1 0.695756 5.136280 47.699871 # CA CNT
599 1 0.232543 5.177970 49.039757 # CA CNT
600 1 -1.153368 5.053236 49.307732 # CA CNT
601 1 -1.601694 4.929506 50.647617 # CA CNT
602 1 -2.855403 4.325751 50.915596 # CA CNT
603 1 -3.231665 4.052381 52.255478 # CA CNT
604 1 -4.193288 3.046602 52.523457 # CA CNT
605 1 -4.449502 2.658454 53.863338 # CA CNT
606 1 -4.996402 1.378919 54.131317 # CA CNT
607 1 -5.099893 0.925494 55.471199 # CA CNT
608 1 -5.162323 -0.464617 55.739178 # CA CNT
609 1 1.601694 4.929506 45.020103 # CA CNT
610 1 0.232543 5.177970 45.288082 # CA CNT
611 1 -0.232543 5.177970 46.627964 # CA CNT
612 1 -1.601694 4.929506 46.895943 # CA CNT
613 1 -2.037123 4.766086 48.235825 # CA CNT
614 1 -3.231665 4.052381 48.503803 # CA CNT
615 1 -3.581908 3.746382 49.843685 # CA CNT
616 1 -4.449502 2.658454 50.111664 # CA CNT
617 1 -4.669892 2.248901 51.451550 # CA CNT
618 1 -5.099893 0.925494 51.719524 # CA CNT
619 1 -5.162323 0.464617 53.059410 # CA CNT
620 1 -5.099893 -0.925494 53.327385 # CA CNT
621 1 -4.996402 -1.378919 54.667271 # CA CNT
622 1 -4.449502 -2.658454 54.935246 # CA CNT
623 1 -2.456151 4.564293 45.824036 # CA CNT
624 1 -3.581908 3.746382 46.092010 # CA CNT
625 1 -3.903312 3.410221 47.431896 # CA CNT
626 1 -4.669892 2.248901 47.699871 # CA CNT
627 1 -4.852682 1.821242 49.039757 # CA CNT
628 1 -5.162323 0.464617 49.307732 # CA CNT
629 1 -5.183189 0.000000 50.647617 # CA CNT
630 1 -4.996402 -1.378919 50.915596 # CA CNT
631 1 -4.852682 -1.821242 52.255478 # CA CNT
632 1 -4.193288 -3.046602 52.523457 # CA CNT
633 1 -3.903312 -3.410221 53.863338 # CA CNT
634 1 -2.855403 -4.325751 54.131317 # CA CNT
635 1 -2.456151 -4.564293 55.471199 # CA CNT
636 1 -1.153368 -5.053236 55.739178 # CA CNT
637 1 -4.193288 3.046602 45.020103 # CA CNT
638 1 -4.852682 1.821242 45.288082 # CA CNT
639 1 -4.996402 1.378919 46.627964 # CA CNT
640 1 -5.183189 0.000000 46.895943 # CA CNT
641 1 -5.162323 -0.464617 48.235825 # CA CNT
642 1 -4.852682 -1.821242 48.503803 # CA CNT
643 1 -4.669892 -2.248901 49.843685 # CA CNT
644 1 -3.903312 -3.410221 50.111664 # CA CNT
645 1 -3.581908 -3.746382 51.451550 # CA CNT
646 1 -2.456151 -4.564293 51.719524 # CA CNT
647 1 -2.037123 -4.766086 53.059410 # CA CNT
648 1 -0.695756 -5.136280 53.327385 # CA CNT
649 1 -0.232543 -5.177970 54.667271 # CA CNT
650 1 1.153368 -5.053236 54.935246 # CA CNT
651 1 -5.099893 -0.925494 45.824036 # CA CNT
652 1 -4.669892 -2.248901 46.092010 # CA CNT
653 1 -4.449502 -2.658454 47.431896 # CA CNT
654 1 -3.581908 -3.746382 47.699871 # CA CNT
655 1 -3.231665 -4.052381 49.039757 # CA CNT
656 1 -2.037123 -4.766086 49.307732 # CA CNT
657 1 -1.601694 -4.929506 50.647617 # CA CNT
658 1 -0.232543 -5.177970 50.915596 # CA CNT
659 1 0.232543 -5.177970 52.255478 # CA CNT
660 1 1.601694 -4.929506 52.523457 # CA CNT
661 1 2.037123 -4.766086 53.863338 # CA CNT
662 1 3.231665 -4.052381 54.131317 # CA CNT
663 1 3.581908 -3.746382 55.471199 # CA CNT
664 1 4.449502 -2.658454 55.739178 # CA CNT
665 1 -4.193288 -3.046602 45.020103 # CA CNT
666 1 -3.231665 -4.052381 45.288082 # CA CNT
667 1 -2.855403 -4.325751 46.627964 # CA CNT
668 1 -1.601694 -4.929506 46.895943 # CA CNT
669 1 -1.153368 -5.053236 48.235825 # CA CNT
670 1 0.232543 -5.177970 48.503803 # CA CNT
671 1 0.695756 -5.136280 49.843685 # CA CNT
672 1 2.037123 -4.766086 50.111664 # CA CNT
673 1 2.456151 -4.564293 51.451550 # CA CNT
674 1 3.581908 -3.746382 51.719524 # CA CNT
675 1 3.903312 -3.410221 53.059410 # CA CNT
676 1 4.669892 -2.248901 53.327385 # CA CNT
677 1 4.852682 -1.821242 54.667271 # CA CNT
678 1 5.162323 -0.464617 54.935246 # CA CNT
679 1 -0.695756 -5.136280 45.824036 # CA CNT
680 1 0.695756 -5.136280 46.092010 # CA CNT
681 1 1.153368 -5.053236 47.431896 # CA CNT
682 1 2.456151 -4.564293 47.699871 # CA CNT