# PART B - MOLECULAR DYNAMICS

# 1) Initialization
units lj
dimension 3
atom_style molecular
bond_style harmonic
pair_style lj/cut 2.5
boundary p p p

# 2) System definition
read_data ../../energy-minimization/data/raw/topology/minimized_coordinate.data
Reading data file ...
  orthogonal box = (-20 -20 -20) to (20 20 20)
  1 by 1 by 1 MPI processor grid
  reading atoms ...
  1540 atoms
  reading velocities ...
  1540 velocities
  scanning bonds ...
  1 = max bonds/atom
  reading bonds ...
  20 bonds
Finding 1-2 1-3 1-4 neighbors ...
  special bond factors lj:    0        0        0       
  special bond factors coul:  0        0        0       
     1 = max # of 1-2 neighbors
     0 = max # of 1-3 neighbors
     0 = max # of 1-4 neighbors
     1 = max # of special neighbors
  special bonds CPU = 0.000 seconds
  read_data CPU = 0.005 seconds

# 3) Visualization
thermo 1000
dump dump_all_atoms_per_100_timestep all atom 1000 ../data/raw/trajectory/dump_all_atoms_per_100_timestep.md.lammpstrj

# 4) Run
fix fix_nve_ensemble all nve
fix fix_langevin_thermostat all langevin 1 1 0.1 94728

run 500000
Generated 0 of 1 mixed pair_coeff terms from geometric mixing rule
WARNING: Communication cutoff 2.8 is shorter than a bond length based estimate of 3.3. This may lead to errors. (src/comm.cpp:723)
Neighbor list info ...
  update: every = 1 steps, delay = 0 steps, check = yes
  max neighbors/atom: 2000, page size: 100000
  master list distance cutoff = 2.8
  ghost atom cutoff = 2.8
  binsize = 1.4, bins = 29 29 29
  1 neighbor lists, perpetual/occasional/extra = 1 0 0
  (1) pair lj/cut, perpetual
      attributes: half, newton on
      pair build: half/bin/newton
      stencil: half/bin/3d
      bin: standard
WARNING: Communication cutoff 2.8 is shorter than a bond length based estimate of 3.3. This may lead to errors. (src/comm.cpp:723)
Per MPI rank memory allocation (min/avg/max) = 6.177 | 6.177 | 6.177 Mbytes
   Step          Temp          E_pair         E_mol          TotEng         Press     
         0   0             -0.95728549     5.124847e-07  -0.95728497    -0.00012810298
      1000   1.0091031     -0.26176158     0.0057483251   1.2566585      0.022635492  
      2000   1.0321829     -0.23582954     0.0032021887   1.3146416      0.023390055  
      3000   0.98487724    -0.22735251     0.0057280656   1.2547321      0.022626825  
      4000   1.0148484     -0.22867258     0.0090241814   1.3016357      0.02210849   
      5000   0.97316567    -0.21859545     0.010332039    1.2505372      0.020853577  
      6000   1.0057785     -0.21120987     0.005137861    1.3016161      0.022274319  
      7000   1.0029099     -0.2220398      0.0077729215   1.2891211      0.02091557   
      8000   0.98462433    -0.22308713     0.0082900469   1.2611804      0.020678976  
      9000   1.0178856     -0.21151864     0.0088957287   1.3232141      0.023943449  
     10000   1.003179      -0.21410984     0.0063040841   1.2959856      0.020758459  
     11000   0.99070293    -0.21095462     0.0063876513   1.2805225      0.02257925   
     12000   0.97533691    -0.2081444      0.0090933339   1.2630043      0.020915427  
     13000   1.029574      -0.20785526     0.0057046526   1.3412076      0.021650459  
     14000   0.96032878    -0.21061043     0.0094819949   1.2384294      0.020100959  
     15000   0.96508321    -0.22183705     0.0022205285   1.2270683      0.01934908   
     16000   0.99733242    -0.21433502     0.0079249236   1.2886171      0.02079789   
     17000   0.98912082    -0.20660105     0.0075536895   1.2836704      0.021734919  
     18000   1.0021677     -0.22863978     0.0037882579   1.2774239      0.021717381  
     19000   1.0254299     -0.21566681     0.0051689965   1.3266482      0.022872401  
     20000   0.96997728    -0.21171644     0.0099555833   1.2522603      0.021661638  
     21000   0.99448275    -0.22381689     0.0098637565   1.2768023      0.02019242   
     22000   0.97593267    -0.20128843     0.0064450736   1.2681051      0.022658413  
     23000   0.97507892    -0.19513043     0.0081056245   1.2746438      0.021113464  
     24000   1.0142129     -0.2032241      0.0058478681   1.3229552      0.022297937  
     25000   1.0254187     -0.21332181     0.0095448645   1.3333523      0.021717185  
     26000   0.99096896    -0.21962523     0.010506757    1.2763697      0.020632918  
     27000   0.99784363    -0.20361081     0.0080826059   1.3002653      0.022651401  
     28000   1.0022714     -0.20060929     0.0095806523   1.3114022      0.02157337   
     29000   1.0357244     -0.21593807     0.0050137892   1.3416534      0.022316069  
     30000   0.98143175    -0.22854249     0.0039169505   1.2465661      0.021211715  
     31000   1.0146383     -0.21510642     0.0051896575   1.3110524      0.023072294  
     32000   0.96707227    -0.20918669     0.0040604605   1.2445402      0.020839785  
     33000   1.0313439     -0.19473095     0.0080984114   1.3593787      0.022629028  
     34000   1.0202244     -0.22138887     0.009458101    1.3174122      0.022657011  
     35000   1.0051579     -0.19333548     0.0082156269   1.3216379      0.022082199  
     36000   1.0323297     -0.1891412      0.0077110777   1.3660589      0.022822841  
     37000   0.98103978    -0.2070625      0.0053355812   1.2688772      0.020988516  
     38000   0.99910486    -0.21197644     0.0055448622   1.2912526      0.021571425  
     39000   0.98877343    -0.21116732     0.0042597939   1.2752895      0.021512615  
     40000   1.0001204     -0.2064619      0.010143392    1.302888       0.022761768  
     41000   1.0143319     -0.2104904      0.0096643229   1.3196839      0.022016222  
     42000   0.96468974    -0.20629407     0.0058611208   1.245662       0.021863645  
     43000   1.0158035     -0.22162948     0.0051837619   1.3062701      0.022225773  
     44000   0.96785994    -0.20905339     0.010352772    1.2521466      0.020874861  
     45000   1.0002476     -0.20088625     0.0047783555   1.3032892      0.022052275  
     46000   1.0132227     -0.19784427     0.0053010452   1.326304       0.021841292  
     47000   1.0074195     -0.21622515     0.0057515195   1.2996743      0.02256902   
     48000   1.001553      -0.2324973      0.0061916969   1.2750483      0.020618144  
     49000   0.98577923    -0.21711845     0.0044143352   1.2650046      0.022152799  
     50000   0.99960174    -0.20659001     0.0091461202   1.3009851      0.021942291  
     51000   1.0093252     -0.21840533     0.0056092664   1.3002086      0.022548656  
     52000   1.0256922     -0.21831448     0.0085330096   1.3277578      0.02345067   
     53000   0.98478526    -0.22199788     0.0055717143   1.2597925      0.020737721  
     54000   1.0077462     -0.23143003     0.0054801531   1.2846879      0.021638258  
     55000   1.0228917     -0.22143767     0.0062183341   1.3181218      0.020792608  
     56000   1.0058969     -0.20350536     0.0030942978   1.3074545      0.021979624  
     57000   0.99463784    -0.2083591      0.009520097    1.292149       0.020591317  
     58000   0.97469618    -0.20752617     0.0073450211   1.2609137      0.022062931  
     59000   0.97726324    -0.20554843     0.0089676219   1.2683622      0.021062334  
     60000   0.99503366    -0.21537497     0.0069426202   1.2831489      0.021863559  
     61000   1.0097534     -0.19566429     0.006528968    1.3245113      0.021358988  
     62000   0.99923951    -0.20063744     0.0095051724   1.3067537      0.021266519  
     63000   0.98531662    -0.20499832     0.0064771707   1.2784941      0.020431725  
     64000   1.0179337     -0.2123712      0.0046681185   1.318206       0.02266925   
     65000   1.0129169     -0.20289991     0.0064663036   1.3219552      0.022139579  
     66000   0.99064939    -0.22246404     0.0035218249   1.2660669      0.021037524  
     67000   1.0027108     -0.19777708     0.01000371     1.3153161      0.021407221  
     68000   1.0003067     -0.21254305     0.0062119818   1.2931546      0.023386984  
     69000   0.99914087    -0.22068316     0.0078276976   1.2848827      0.022082125  
     70000   1.0027041     -0.21479473     0.0028340002   1.2911188      0.020710697  
     71000   1.0326438     -0.21200352     0.0057461683   1.3417026      0.023383689  
     72000   0.99520188    -0.22044733     0.0062996495   1.2776858      0.021200586  
     73000   0.98724201    -0.2231684      0.0052940017   1.262027       0.021448822  
     74000   1.0149155     -0.22249943     0.005856502    1.3047418      0.021245278  
     75000   1.0086316     -0.21786868     0.0052274376   1.2993237      0.022750445  
     76000   1.0141091     -0.20523286     0.0067475572   1.3216906      0.022777272  
     77000   0.98224506    -0.20100079     0.0080045276   1.2794146      0.020568331  
     78000   1.0028196     -0.19798957     0.0062297239   1.3114928      0.021639702  
     79000   1.0007767     -0.2107925      0.0051017692   1.2944996      0.022912603  
     80000   0.9850938     -0.21332719     0.0074351523   1.2707892      0.021891991  
     81000   0.97001855    -0.20981539     0.012395758    1.2566634      0.020017761  
     82000   1.0128556     -0.21215506     0.0062936688   1.3124355      0.021767135  
     83000   1.0051095     -0.20525397     0.0040707998   1.3055021      0.022314054  
     84000   1.0143386     -0.22367451     0.0028336736   1.299679       0.021378882  
     85000   0.96654833    -0.21503754     0.0049867392   1.2388302      0.02031262   
     86000   0.97870805    -0.2021366      0.0084656609   1.2734378      0.02047828   
     87000   0.99999632    -0.21270785     0.0064157155   1.2927283      0.022094773  
     88000   1.0232678     -0.21833066     0.0036372805   1.3192117      0.021256904  
     89000   0.98021418    -0.20388767     0.0069658416   1.2724447      0.021445751  
     90000   0.99230469    -0.21093962     0.0072190803   1.28377        0.023304081  
     91000   1.0281824     -0.21777022     0.011402277    1.3349042      0.022725561  
     92000   0.9868372     -0.20646359     0.0060009097   1.2788319      0.021325381  
     93000   0.98695574    -0.21579176     0.0090906116   1.2727711      0.021648977  
     94000   1.0308353     -0.20897435     0.0066218857   1.3428965      0.021773297  
     95000   0.97365198    -0.2032545      0.0043577883   1.2606329      0.020670885  
     96000   0.99259497    -0.19780784     0.0052256453   1.2953434      0.023061679  
     97000   0.99135562    -0.19573939     0.0077030565   1.2980315      0.02185827   
     98000   0.98527545    -0.20643289     0.003175075    1.2736957      0.021017412  
     99000   1.0480555     -0.20620992     0.0069895864   1.3718422      0.022483574  
    100000   0.99420105    -0.19376712     0.0083975668   1.3049637      0.021807952  
    101000   0.99531945    -0.20648269     0.0068615337   1.2923886      0.021495005  
    102000   1.0090058     -0.19637359     0.0075168244   1.3236692      0.021619759  
    103000   1.0027705     -0.2186346      0.0062335061   1.290778       0.020626015  
    104000   0.99164826    -0.21530689     0.0073542493   1.2785539      0.020484936  
    105000   1.017129      -0.21466069     0.006525356    1.3165674      0.022559249  
    106000   1.0203727     -0.22217399     0.0051674806   1.3125587      0.022724843  
    107000   1.0109129     -0.21739023     0.0041429427   1.3021375      0.0214577    
    108000   1.0114293     -0.20788373     0.0066671852   1.3149422      0.022331563  
    109000   0.98292509    -0.19330195     0.0054561901   1.2855845      0.021272406  
    110000   1.0049604     -0.2228428      0.0100209      1.2936399      0.022888676  
    111000   0.98568447    -0.20219127     0.0072057045   1.2825811      0.020882742  
    112000   0.98120973    -0.21092403     0.0046022924   1.2645371      0.020900549  
    113000   1.0007381     -0.21045281     0.0044219419   1.2941015      0.021686715  
    114000   1.0057037     -0.20523594     0.0083161669   1.3106562      0.021706709  
    115000   1.0185489     -0.22382383     0.0049290609   1.3079365      0.022172052  
    116000   0.97187662    -0.21802759     0.0043009755   1.2431417      0.020702707  
    117000   1.0023949     -0.2034844      0.0083285128   1.3074602      0.021826832  
    118000   0.98763611    -0.21270439     0.0028921301   1.2706799      0.020439705  
    119000   0.98671401    -0.20160488     0.0072371614   1.2847422      0.020681735  
    120000   0.98911408    -0.21264799     0.011504645    1.2815644      0.020497544  
    121000   1.0023339     -0.21701077     0.0056822728   1.291196       0.021471693  
    122000   1.0207514     -0.20540088     0.0058605148   1.3305925      0.022214233  
    123000   0.99130176    -0.21004687     0.011866466    1.2878067      0.020808603  
    124000   0.97121959    -0.2119957      0.0058810204   1.2497687      0.022406711  
    125000   1.0152296     -0.20740894     0.0095386749   1.3239853      0.022042829  
    126000   0.97428257    -0.22218602     0.0081667904   1.2464557      0.020399268  
    127000   1.0474658     -0.22202617     0.005002379    1.3531546      0.023229611  
    128000   1.0134604     -0.21157591     0.0081249818   1.3157525      0.022036316  
    129000   0.98716399    -0.21752321     0.0048346028   1.2670959      0.021210474  
    130000   1.0053047     -0.21579985     0.0046237021   1.2958016      0.022714461  
    131000   0.99356403    -0.22371483     0.011651883    1.2773153      0.020589971  
    132000   0.97954675    -0.20440519     0.0042131209   1.268174       0.021997813  
    133000   0.98494298    -0.20876698     0.0065927728   1.2742809      0.020534265  
    134000   1.0168206     -0.20742083     0.0039917917   1.3208114      0.021849558  
    135000   1.0218622     -0.20718536     0.0077003762   1.332313       0.021961443  
    136000   1.0480707     -0.20105597     0.0076380727   1.3776672      0.024379145  
    137000   0.99219163    -0.19291269     0.0073218749   1.3017302      0.020948779  
    138000   0.98675243    -0.20379018     0.007518243    1.2828956      0.021415271  
    139000   1.0012637     -0.19168616     0.0058184607   1.3150525      0.022619198  
    140000   0.98903835    -0.20578356     0.0086817306   1.2854924      0.022289369  
    141000   0.98167322    -0.20321608     0.0086276803   1.2769653      0.022038836  
    142000   1.0052712     -0.19466043     0.0048642357   1.3171314      0.021738024  
    143000   1.0076797     -0.19643798     0.0025655382   1.3166656      0.021612768  
    144000   1.0203669     -0.20783704     0.0043519398   1.3260713      0.021458449  
    145000   1.0358307     -0.20887007     0.0075176058   1.3513846      0.022556041  
    146000   1.0048618     -0.20719137     0.0036002273   1.3027228      0.02105387   
    147000   0.99815863    -0.19776828     0.0060755032   1.3045729      0.021659938  
    148000   0.97931073    -0.21420238     0.0041029747   1.2579128      0.021523046  
    149000   0.99509396    -0.19628173     0.0039636825   1.2993536      0.022181141  
    150000   0.98183577    -0.23343875     0.0032112128   1.2415698      0.019591107  
    151000   1.0413744     -0.22053273     0.018885564    1.3594001      0.020927862  
    152000   0.99378507    -0.21275431     0.0074379137   1.2843932      0.02196052   
    153000   0.97686816    -0.21315658     0.0079471623   1.2591413      0.021786422  
    154000   1.0032378     -0.20781189     0.0049219234   1.3009896      0.022308498  
    155000   1.0375652     -0.20986868     0.0056805026   1.351149       0.023904842  
    156000   0.96409437    -0.21769148     0.0062408539   1.2337519      0.019680883  
    157000   1.0049833     -0.21769758     0.0058489994   1.2946475      0.022744245  
    158000   0.97912403    -0.21101454     0.0060033575   1.2627212      0.022146858  
    159000   1.029998      -0.22838569     0.0050839389   1.3206921      0.021796539  
    160000   1.0132122     -0.22942316     0.011677801    1.3010861      0.022149058  
    161000   0.99352459    -0.23359754     0.0078380199   1.2635597      0.020711107  
    162000   0.99471694    -0.22555798     0.0076456181   1.2731942      0.021839625  
    163000   0.98285895    -0.20510094     0.0080791591   1.2763093      0.021219047  
    164000   0.96094874    -0.19622532     0.0062356537   1.2504974      0.020406324  
    165000   0.98941179    -0.2088446      0.0058270264   1.2801364      0.021305538  
    166000   0.98511097    -0.19842145     0.0056289815   1.2839145      0.021136633  
    167000   0.96937082    -0.2034515      0.0027609039   1.2524214      0.020899574  
    168000   0.98389518    -0.20926916     0.0077550068   1.2733703      0.02073377   
    169000   0.96711566    -0.21648954     0.0083427415   1.2415847      0.01979117   
    170000   0.96880159    -0.19099147     0.0060547698   1.267322       0.021196612  
    171000   1.00947       -0.21185991     0.0050443231   1.3064062      0.022104301  
    172000   1.0050989     -0.21245295     0.0049015939   1.299118       0.022530042  
    173000   0.98146031    -0.22134542     0.0098248733   1.259714       0.021062676  
    174000   1.0154811     -0.20984333     0.011164138    1.3235534      0.021055033  
    175000   0.99574104    -0.20950582     0.0099976427   1.2931335      0.020970935  
    176000   0.99911758    -0.22144458     0.0077040777   1.2839627      0.020914159  
    177000   1.0301552     -0.20572674     0.0066327821   1.3451354      0.022122929  
    178000   1.0026534     -0.22670171     0.010071559    1.2863734      0.021916251  
    179000   0.99215098    -0.21768153     0.003268462    1.272847       0.02259168   
    180000   0.96886409    -0.20460019     0.0062435785   1.2539958      0.020986429  
    181000   1.0031062     -0.19004168     0.0033175008   1.316958       0.021966822  
    182000   0.99247593    -0.20309798     0.0075605496   1.2922098      0.022666564  
    183000   1.0114868     -0.19582085     0.006124974    1.3265491      0.020859137  
    184000   1.0123286     -0.19187175     0.0032573644   1.3288925      0.022681062  
    185000   0.98288664    -0.19700217     0.0079107319   1.2842812      0.021396919  
    186000   0.98297729    -0.20388417     0.0059588365   1.2755832      0.022732758  
    187000   1.0049097     -0.21130164     0.0053101854   1.3003942      0.022321724  
    188000   1.0355109     -0.20111126     0.0061043544   1.3572508      0.021387822  
    189000   1.015581      -0.21523718     0.0064581588   1.3136033      0.02333354   
    190000   0.98700116    -0.21194422     0.0061473431   1.2737435      0.021148031  
    191000   0.96597568    -0.2120535      0.007882726    1.2438519      0.020411126  
    192000   0.96713595    -0.19938625     0.005588382    1.255964       0.020818013  
    193000   1.0118377     -0.22447877     0.0044342945   1.2967265      0.021836859  
    194000   0.96278002    -0.21684563     0.0063773103   1.2327639      0.020792928  
    195000   0.9890286     -0.21238333     0.0083399305   1.2785362      0.021830412  
    196000   0.98583898    -0.21106815     0.0065518934   1.273282       0.021953657  
    197000   1.0066958     -0.20950146     0.0038108999   1.3033726      0.021707114  
    198000   1.0221236     -0.21175206     0.0060622592   1.3265         0.021801568  
    199000   0.99905025    -0.20961437     0.0074455606   1.2954335      0.021259783  
    200000   1.0118114     -0.2090546      0.0041108177   1.3117878      0.022201891  
    201000   1.0398222     -0.22927469     0.013407858    1.3428536      0.022041407  
    202000   0.99212706    -0.23134409     0.006408271    1.2622884      0.021552537  
    203000   1.0370512     -0.22340179     0.0065318935   1.3376968      0.022959527  
    204000   1.0062525     -0.22282276     0.0053798096   1.2909557      0.021855053  
    205000   1.0122196     -0.23325533     0.0051671404   1.2892553      0.021241709  
    206000   1.0052718     -0.21220895     0.0040584962   1.298778       0.021232582  
    207000   0.97112691    -0.21639179     0.0065248994   1.2458776      0.022366764  
    208000   1.0263111     -0.21861985     0.0062978732   1.326145       0.02325839   
    209000   1.0258129     -0.20132872     0.0074115996   1.343803       0.022540144  
    210000   0.9656301     -0.20205054     0.007577514    1.2530316      0.02119291   
    211000   0.9930295     -0.18409575     0.0060999171   1.3105812      0.022096879  
    212000   1.0350429     -0.21342706     0.0062852828   1.3444144      0.022691321  
    213000   0.98833206    -0.22252323     0.0057138931   1.2647261      0.022019711  
    214000   1.0031238     -0.22578154     0.0071606218   1.2850877      0.021238794  
    215000   0.98141452    -0.21109072     0.0091868507   1.269262       0.020837231  
    216000   1.0335576     -0.22355354     0.0085578396   1.3343339      0.023137146  
    217000   1.0209634     -0.20906572     0.005661745    1.3270466      0.022144851  
    218000   0.99044883    -0.21449153     0.0044038657   1.2746209      0.020480011  
    219000   1.0268621     -0.22057999     0.0055357358   1.3242488      0.022989144  
    220000   0.9957796     -0.20705071     0.0053951956   1.291044       0.020857111  
    221000   1.0204256     -0.20633658     0.0080174582   1.3313253      0.021936063  
    222000   0.98097385    -0.22180051     0.0089113771   1.2576161      0.021203073  
    223000   0.99822318    -0.20884388     0.0074964026   1.295015       0.02185628   
    224000   0.9874655     -0.20375148     0.0070124928   1.2834974      0.020217364  
    225000   1.0160043     -0.2201258      0.0084979976   1.3113891      0.022170476  
    226000   0.99516556    -0.2141217      0.0062156714   1.283873       0.020830368  
    227000   1.0112107     -0.21888174     0.00510486     1.3020542      0.023307877  
    228000   0.99777948    -0.20492165     0.006075186    1.2968509      0.021393948  
    229000   1.0187035     -0.21811288     0.0092014436   1.3181516      0.022886463  
    230000   1.01624       -0.22191769     0.0082903073   1.3097428      0.022575804  
    231000   1.0063257     -0.21315404     0.0036657268   1.29902        0.021355605  
    232000   0.9906982     -0.20704082     0.0034426339   1.2814842      0.022386078  
    233000   1.0059777     -0.20094462     0.0039501558   1.3109922      0.023562973  
    234000   1.0306788     -0.2050879      0.0094956955   1.3494221      0.022184443  
    235000   0.96845253    -0.20930819     0.0040022721   1.2464296      0.021172086  
    236000   1.042452      -0.19627628     0.0092835013   1.3756699      0.023229029  
    237000   0.95914599    -0.21466301     0.0063027964   1.2294245      0.020373255  
    238000   0.99007927    -0.20565044     0.002493067    1.2809972      0.021970525  
    239000   1.0530926     -0.20774659     0.0047835419   1.3756501      0.024447251  
    240000   1.0206116     -0.21584443     0.0032473386   1.3173263      0.022685515  
    241000   0.93768707    -0.21755273     0.0069798013   1.1950443      0.021023277  
    242000   0.95971731    -0.21168769     0.0070557082   1.2340092      0.020304417  
    243000   0.97679002    -0.20265652     0.0040115613   1.2655886      0.021901205  
    244000   1.0176197     -0.21181652     0.013139164    1.326761       0.021580155  
    245000   0.98199563    -0.19678961     0.0054832957   1.2807306      0.021674736  
    246000   1.0236308     -0.2037018      0.0090075808   1.3397549      0.02159891   
    247000   0.99844088    -0.20658902     0.0081769377   1.2982767      0.022264589  
    248000   0.99193535    -0.21056684     0.0056285438   1.2819986      0.023018054  
    249000   0.99212209    -0.20252523     0.0073503769   1.2920419      0.021202678  
    250000   0.99660405    -0.20524518     0.0062741904   1.2949644      0.021183559  
    251000   1.0002693     -0.19592408     0.0039018438   1.3074074      0.022786782  
    252000   0.99924225    -0.20689483     0.0074544492   1.2984497      0.021402585  
    253000   0.96448537    -0.2054135      0.008855985    1.2492311      0.019354807  
    254000   1.001619      -0.21577034     0.0035412508   1.2892238      0.021428089  
    255000   0.98818828    -0.19938075     0.0069601381   1.2888993      0.021776245  
    256000   1.025923      -0.18828845     0.0065039416   1.3561008      0.022162062  
    257000   0.9826219     -0.1970192      0.005384556    1.2813411      0.020201527  
    258000   1.0212208     -0.20163287     0.0067961861   1.3359998      0.022128009  
    259000   1.0115854     -0.21719718     0.0095964266   1.308792       0.020863105  
    260000   1.0149566     -0.19865524     0.0053353879   1.3281264      0.022926282  
    261000   0.95497378    -0.20711931     0.00571685     1.230128       0.020590737  
    262000   1.0128506     -0.19775568     0.0076141956   1.3281479      0.022872993  
    263000   0.9712941     -0.19709126     0.0069092605   1.2658131      0.020528344  
    264000   1.0062286     -0.2150599      0.003326703    1.2966297      0.02211872   
    265000   1.0235335     -0.20661312     0.00794973     1.3356399      0.022376048  
    266000   1.0108255     -0.22180016     0.005372128    1.2988256      0.021910143  
    267000   1.0215099     -0.20911631     0.00546273     1.3276163      0.020847081  
    268000   1.0186246     -0.21789022     0.0056729261   1.3147275      0.022846192  
    269000   0.99880824    -0.21942078     0.0050232453   1.282842       0.02102383   
    270000   0.99362952    -0.21422088     0.0064280975   1.2816837      0.021301114  
    271000   1.0075831     -0.2130621      0.0080977771   1.3054288      0.021338586  
    272000   1.0280665     -0.19305101     0.005530046    1.3535774      0.022287104  
    273000   1.0154019     -0.20532659     0.010668494    1.3274558      0.022239291  
    274000   0.96874198    -0.21421242     0.0058354257   1.2437924      0.020210975  
    275000   1.0187643     -0.21782417     0.0085150017   1.3178449      0.021037205  
    276000   0.98162093    -0.20706568     0.0065207965   1.2709304      0.020823937  
    277000   0.99651771    -0.21493556     0.0084946607   1.287365       0.020955303  
    278000   0.97434762    -0.2200285      0.0069845613   1.2475285      0.021231148  
    279000   1.0192422     -0.22041735     0.010973244    1.3184264      0.020948429  
    280000   1.0121849     -0.21063449     0.0063519497   1.3130089      0.02122307   
    281000   1.007279      -0.2181276      0.0058300345   1.2976398      0.021199803  
    282000   0.99503597    -0.20341578     0.0094268312   1.2975958      0.021144409  
    283000   0.98805186    -0.20989654     0.0093630843   1.280582       0.020693724  
    284000   1.0067716     -0.21200309     0.0086499848   1.3058237      0.021220348  
    285000   1.0152263     -0.21012292     0.0042099487   1.3159377      0.021281098  
    286000   1.0272117     -0.20433222     0.0065115831   1.3419964      0.022936109  
    287000   0.99891138    -0.22410418     0.0044347266   1.2777247      0.021911259  
    288000   0.95239599    -0.22168174     0.0050291466   1.2110137      0.020249198  
    289000   0.95585787    -0.20941958     0.006640705    1.2300769      0.020653376  
    290000   0.96030466    -0.20581657     0.0031911622   1.2368962      0.020671717  
    291000   1.011462      -0.22868457     0.0084414377   1.2959647      0.021589604  
    292000   1.0088546     -0.225482       0.008711434    1.2955286      0.022124311  
    293000   1.0366619     -0.22658232     0.007217471    1.3346183      0.020851051  
    294000   0.98592159    -0.21998049     0.0056258143   1.2635674      0.02256279   
    295000   0.99683399    -0.22717973     0.0066981147   1.2737984      0.021779298  
    296000   1.008683      -0.20954352     0.0069912382   1.3094897      0.0218467    
    297000   1.0221662     -0.21308717     0.0052231511   1.3243896      0.022994335  
    298000   1.0099983     -0.22039789     0.0081258451   1.3017417      0.020828324  
    299000   1.0244762     -0.20902598     0.0080052481   1.3346957      0.022797807  
    300000   1.0030304     -0.21979136     0.0048895432   1.2886667      0.021478355  
    301000   0.99519243    -0.22537015     0.007002928    1.2734521      0.020568128  
    302000   1.0031878     -0.22793563     0.0080991545   1.2839681      0.022415062  
    303000   1.0202066     -0.20912702     0.013110077    1.3332992      0.021789603  
    304000   1.0043518     -0.20752159     0.0055369118   1.3035648      0.023373282  
    305000   1.0350019     -0.20258918     0.0055792459   1.3544848      0.022653413  
    306000   0.98329984    -0.20564812     0.0066161182   1.27496        0.021114576  
    307000   0.98671575    -0.21912904     0.0094041477   1.2693877      0.022720076  
    308000   1.0036107     -0.20983413     0.0070549436   1.3016593      0.021878434  
    309000   0.96830893    -0.22356691     0.0047717744   1.2327251      0.021798552  
    310000   1.0068657     -0.2174487      0.0090656437   1.3009348      0.021539867  
    311000   0.97685775    -0.21498328     0.0055843704   1.2549362      0.020887589  
    312000   1.0117744     -0.20486082     0.0062966654   1.3181119      0.021480144  
    313000   1.0056144     -0.22303415     0.0066109165   1.2910189      0.021839966  
    314000   0.99365222    -0.22399121     0.0059341952   1.2714535      0.020769913  
    315000   0.98169034    -0.19671403     0.0077068835   1.2825722      0.021552591  
    316000   1.016696      -0.21609573     0.008713819    1.3166718      0.021444058  
    317000   1.0067775     -0.19936456     0.010922275    1.3207433      0.021378139  
    318000   1.0329451     -0.21157117     0.0090486976   1.345889       0.021802977  
    319000   0.99952919    -0.21884378     0.0077159968   1.2871924      0.020873415  
    320000   0.99207294    -0.21067457     0.0071286375   1.2835972      0.02138182   
    321000   1.0120733     -0.22143788     0.0041178967   1.2998042      0.021299939  
    322000   1.0141156     -0.20519072     0.0092600388   1.324255       0.022572622  
    323000   1.0200864     -0.20918994     0.0056465312   1.3255926      0.022578405  
    324000   0.99356424    -0.2105682      0.010520362    1.2893308      0.020902911  
    325000   1.0137088     -0.20563101     0.005873268    1.3198181      0.022581662  
    326000   0.97474535    -0.20926483     0.0041426473   1.2560464      0.020249843  
    327000   0.99729467    -0.20240895     0.0064653042   1.299027       0.021090307  
    328000   0.99010088    -0.21087546     0.0052518182   1.2785633      0.021313352  
    329000   0.99576955    -0.20198726     0.0074023046   1.2980995      0.021939939  
    330000   1.0128896     -0.21089305     0.0063172966   1.3137721      0.023160248  
    331000   0.98245312    -0.2088112      0.0047536979   1.2686652      0.021206686  
    332000   1.0125431     -0.19974618     0.0075756201   1.3256578      0.02176705   
    333000   1.0158419     -0.22476059     0.0054644144   1.3034772      0.0213971    
    334000   0.99818234    -0.19972005     0.0047409563   1.3013222      0.021596044  
    335000   1.0366424     -0.1944619      0.0040447223   1.3635367      0.023366763  
    336000   1.0307793     -0.22110322     0.0066784055   1.3307402      0.021544606  
    337000   1.0036117     -0.21464345     0.0091981935   1.2989948      0.021299897  
    338000   1.0270873     -0.20154195     0.0078600946   1.3459486      0.022439955  
    339000   0.99657253    -0.20600514     0.0066679276   1.2945509      0.022019415  
    340000   0.99904227    -0.19850956     0.0037254342   1.3028062      0.021595004  
    341000   1.0070022     -0.22238293     0.0060391063   1.2931786      0.022527472  
    342000   1.004676      -0.20914819     0.0037872385   1.3006744      0.022906056  
    343000   1.0294514     -0.20994384     0.0072726959   1.3405032      0.022687645  
    344000   0.98286895    -0.21599035     0.0056682158   1.263024       0.021105976  
    345000   0.99124805    -0.22402055     0.012393498    1.2742795      0.022409031  
    346000   0.99653148    -0.20055022     0.0045282307   1.2978046      0.021471526  
    347000   0.97018548    -0.2172279      0.0048140065   1.2419193      0.021678072  
    348000   0.98671258    -0.22852528     0.0062537624   1.2568363      0.021667946  
    349000   1.0291833     -0.21290365     0.0047740697   1.334643       0.023523538  
    350000   1.0159902     -0.2310125      0.0082407958   1.3002239      0.020507956  
    351000   0.97835829    -0.22357689     0.005075536    1.2480831      0.022422143  
    352000   1.0124308     -0.23110145     0.0064285166   1.2929871      0.021472921  
    353000   0.9893893     -0.20993991     0.0052874534   1.2784678      0.021680648  
    354000   0.94597496    -0.21321973     0.003683217    1.2085045      0.021582042  
    355000   0.98925267    -0.21703893     0.011437796    1.2773143      0.019961791  
    356000   1.0097078     -0.21282296     0.0055988402   1.306354       0.02137363   
    357000   1.0012816     -0.2147057      0.0060363999   1.2922779      0.021546436  
    358000   0.99541204    -0.22338249     0.0075777434   1.2763438      0.02100086   
    359000   1.0154505     -0.20883464     0.0085054805   1.3218575      0.023122507  
    360000   0.9730163     -0.22150106     0.0038564548   1.2409321      0.020867283  
    361000   1.0087769     -0.20657463     0.0025357192   1.3081438      0.023743506  
    362000   0.99832086    -0.21750136     0.0074092822   1.2864168      0.021336131  
    363000   0.98865246    -0.19580984     0.0065608024   1.2927667      0.020672988  
    364000   1.0007782     -0.20862606     0.0074150374   1.2989815      0.023058315  
    365000   1.024265      -0.21532319     0.0045481722   1.3246248      0.023105485  
    366000   0.96994618    -0.21393061     0.0083208598   1.2483648      0.020450201  
    367000   1.0510098     -0.22268142     0.0063811536   1.3591907      0.022447398  
    368000   1.0086148     -0.20968523     0.0078726793   1.3101273      0.021639623  
    369000   1.0540198     -0.21582194     0.0072941042   1.3714752      0.023169267  
    370000   0.99020966    -0.24075414     0.004111112    1.247707       0.0215075    
    371000   0.98945275    -0.23352777     0.004416498    1.2541041      0.022348523  
    372000   1.0003488     -0.21382454     0.0047046973   1.2904289      0.021993858  
    373000   0.98159773    -0.20857445     0.0061886014   1.2690546      0.022970362  
    374000   0.97585813    -0.21104466     0.005379437    1.2571715      0.020279457  
    375000   1.007009      -0.21773117     0.0060377554   1.2978393      0.022042761  
    376000   1.0297321     -0.19834034     0.0061434284   1.3513982      0.023413398  
    377000   0.98188753    -0.23199528     0.0060114308   1.2458911      0.01956448   
    378000   0.98295711    -0.21860043     0.0081590312   1.2630368      0.021207118  
    379000   1.027215      -0.19978013     0.0047263957   1.3447682      0.022426616  
    380000   1.0195422     -0.217287       0.0089915086   1.3200247      0.021842867  
    381000   1.0147128     -0.19263934     0.0055554778   1.333997       0.022726901  
    382000   0.98852762    -0.21064465     0.0069818397   1.2781658      0.021584531  
    383000   0.97928102    -0.22228656     0.0045695664   1.2502507      0.021983718  
    384000   1.0096967     -0.21770915     0.015240865    1.3110932      0.022119016  
    385000   1.020174      -0.20581546     0.0087504249   1.3322024      0.02380453   
    386000   0.97913794    -0.20819431     0.0045582116   1.2641171      0.020879453  
    387000   1.0132726     -0.20903786     0.007626364    1.3175104      0.02089787   
    388000   0.99422734    -0.22176756     0.0093747333   1.2779798      0.020362099  
    389000   1.005509      -0.20832558     0.007862942    1.3068214      0.021388872  
    390000   0.97240847    -0.20319942     0.0090005579   1.2634667      0.022655861  
    391000   0.99221632    -0.235394       0.0068521137   1.2588161      0.020502513  
    392000   0.97904652    -0.22022846     0.0066405713   1.2540283      0.022760822  
    393000   1.0088402     -0.21926308     0.0038937526   1.2969083      0.022057766  
    394000   1.0170582     -0.22294563     0.0054832547   1.3071342      0.021334927  
    395000   1.0081109     -0.20464269     0.003781763    1.3103236      0.022924376  
    396000   0.99987865    -0.20140439     0.0032788743   1.3007186      0.021742133  
    397000   0.97719604    -0.19585879     0.0076809161   1.2766644      0.021345986  
    398000   1.0137415     -0.22372682     0.0040313414   1.2999294      0.022088471  
    399000   1.0048834     -0.21842033     0.0058543046   1.2937803      0.0208114    
    400000   0.98814972    -0.21383775     0.009720502    1.2771448      0.020179225  
    401000   0.97122901    -0.20497091     0.0089503585   1.259877       0.021001419  
    402000   1.0270618     -0.20999574     0.0077510798   1.3373476      0.0224348    
    403000   0.99843937    -0.21600887     0.010737002    1.2914147      0.020610789  
    404000   1.0238224     -0.20144242     0.0067869496   1.3400809      0.02382275   
    405000   1.0123482     -0.22367888     0.0070689658   1.3009264      0.021392269  
    406000   0.99740519    -0.21996597     0.0093746553   1.284545       0.020946517  
    407000   0.98987545    -0.21147026     0.0032231202   1.2756019      0.021355229  
    408000   1.0005768     -0.22647175     0.0042170269   1.2776359      0.020702837  
    409000   0.99772029    -0.19243951     0.0057900508   1.3089592      0.02294825   
    410000   0.99580264    -0.19481755     0.0048535909   1.3027701      0.022872601  
    411000   1.025537      -0.20632883     0.0056128589   1.3365906      0.0213923    
    412000   0.99091865    -0.20476423     0.0072430308   1.2878916      0.020326909  
    413000   0.98261081    -0.19719513     0.0047222044   1.2804862      0.021624713  
    414000   1.0196007     -0.20770228     0.0072663342   1.327972       0.021802244  
    415000   0.98676055    -0.21183987     0.0049999591   1.2723398      0.021275986  
    416000   1.0246081     -0.21490898     0.0043131972   1.3253183      0.020953175  
    417000   1.03417       -0.22948464     0.0067317152   1.3274948      0.020609827  
    418000   0.98337312    -0.21522477     0.010721149    1.2695982      0.022225125  
    419000   1.0046123     -0.22062412     0.0093269018   1.2946427      0.021695412  
    420000   0.9742423     -0.21943479     0.0042764607   1.2452562      0.019842777  
    421000   1.0056702     -0.21537661     0.0079036627   1.3000528      0.02216563   
    422000   1.0343651     -0.20001778     0.0050767206   1.3555991      0.023075916  
    423000   0.98892       -0.2123789      0.0069234725   1.2769613      0.020558338  
    424000   0.98328238    -0.21186658     0.0062130298   1.2683123      0.021121149  
    425000   1.0033435     -0.20677147     0.00706315     1.3043297      0.020960613  
    426000   0.98881174    -0.2124275      0.0096036125   1.2794306      0.021678785  
    427000   0.99000087    -0.22784203     0.012755677    1.2689507      0.019742791  
    428000   1.0061009     -0.2291017      0.0050028389   1.2840726      0.020849207  
    429000   1.0086047     -0.2119375      0.0064135231   1.3064007      0.021257621  
    430000   1.0301528     -0.20302013     0.0084960666   1.3497018      0.022303997  
    431000   0.9940199     -0.20827575     0.010660016    1.2924459      0.021094358  
    432000   0.96854836    -0.20549639     0.010670852    1.2570536      0.021367908  
    433000   0.99042758    -0.21578331     0.014903749    1.2837971      0.020637132  
    434000   1.0013066     -0.21044631     0.0086772859   1.2992156      0.020518366  
    435000   1.0008603     -0.19811592     0.0049738853   1.3071735      0.021675707  
    436000   1.0228593     -0.19872342     0.0066183317   1.3411876      0.022897589  
    437000   1.0080727     -0.20175916     0.0060544249   1.3154224      0.022342369  
    438000   0.99505977    -0.20444142     0.0081885255   1.2953675      0.022052111  
    439000   1.0127818     -0.1977211      0.0088924295   1.3293575      0.021788087  
    440000   0.98448691    -0.21614364     0.0060706155   1.2656984      0.020436337  
    441000   1.0279198     -0.20269073     0.0071179389   1.3453057      0.023240772  
    442000   1.0167043     -0.20345758     0.0063327881   1.3269414      0.022931911  
    443000   1.036102      -0.22926985     0.007821269    1.3316952      0.021689302  
    444000   1.0095566     -0.21546211     0.0076872293   1.3055767      0.022274866  
    445000   1.0024964     -0.2097477      0.0079221594   1.3009426      0.021677207  
    446000   1.0165831     -0.20586892     0.0073122709   1.3253278      0.022237131  
    447000   1.0044106     -0.20507968     0.0065414282   1.3070993      0.021328921  
    448000   1.0012393     -0.20057399     0.0072476768   1.3075574      0.021725671  
    449000   1.0220147     -0.22203784     0.0086640448   1.3186528      0.02222032   
    450000   0.98181713    -0.20184089     0.0060681439   1.2759966      0.021217205  
    451000   1.0144057     -0.21542128     0.0061278987   1.3113272      0.022717751  
    452000   0.99284204    -0.22458355     0.0086262485   1.2723387      0.021079483  
    453000   0.9862062     -0.20514766     0.0091549073   1.282356       0.021061167  
    454000   1.0065304     -0.20416588     0.010105698    1.314755       0.022450479  
    455000   0.99148709    -0.21101549     0.0031381391   1.2783876      0.021948256  
    456000   1.0005121     -0.22518104     0.003256211    1.2778688      0.021021261  
    457000   0.9489356     -0.21752289     0.0068992615   1.2118555      0.020216446  
    458000   1.0108027     -0.21481263     0.0086244737   1.3090313      0.021482217  
    459000   1.0290529     -0.21687921     0.007256022    1.3329539      0.021936434  
    460000   1.00874       -0.21527785     0.0073506234   1.3042002      0.021193383  
    461000   0.99895699    -0.20531164     0.0066597308   1.2988106      0.020580776  
    462000   1.0192925     -0.21328721     0.0059959819   1.3206547      0.021570243  
    463000   0.98940653    -0.20829811     0.0073560587   1.282204       0.020710023  
    464000   1.0327894     -0.19495292     0.0046791364   1.3579044      0.023536647  
    465000   1.0089284     -0.20794208     0.0080161268   1.3124839      0.02189002   
    466000   1.0376788     -0.20304041     0.0052127492   1.3576798      0.022400458  
    467000   1.0134582     -0.211893       0.00470902     1.3120161      0.021476249  
    468000   0.99620204    -0.21956702     0.0057363312   1.279502       0.020901588  
    469000   1.0145069     -0.19283474     0.0059110346   1.3338485      0.022021568  
    470000   0.97880226    -0.22874279     0.0045929104   1.2431001      0.020635474  
    471000   0.99437928    -0.19919973     0.0067805566   1.2981812      0.021088465  
    472000   1.0049125     -0.2111025      0.0046913328   1.2999788      0.022889087  
    473000   1.030181      -0.2023221      0.0089309845   1.3508769      0.023847209  
    474000   0.96705788    -0.2132824      0.011281326    1.2476438      0.019378298  
    475000   1.0123596     -0.21878095     0.0087741978   1.3075466      0.021164141  
    476000   0.98991703    -0.20239937     0.0060224009   1.2875344      0.021312452  
    477000   1.0095762     -0.20517979     0.0055406125   1.3137418      0.022781002  
    478000   0.98916998    -0.20497455     0.0056230968   1.28344        0.022069583  
    479000   1.0153964     -0.21555747     0.0052601109   1.3118082      0.022236479  
    480000   1.0280132     -0.21107394     0.010968374    1.340913       0.02219949   
    481000   1.0037118     -0.20972243     0.011953146    1.3068208      0.022619721  
    482000   1.0073759     -0.22177042     0.010214783    1.298527       0.022068146  
    483000   1.0108504     -0.22626707     0.0056699182   1.2946939      0.021655231  
    484000   0.99854784    -0.22976341     0.0054482618   1.272534       0.021957755  
    485000   1.0169704     -0.21477721     0.0069580639   1.3166459      0.022174231  
    486000   0.99249009    -0.21870679     0.0086105466   1.2776722      0.022287508  
    487000   1.0142519     -0.21047383     0.0039544873   1.3138706      0.022114309  
    488000   0.9968578     -0.21210983     0.0058563529   1.2880623      0.021311168  
    489000   1.0097106     -0.20935318     0.0038962683   1.3081255      0.023044258  
    490000   0.99465499    -0.20358905     0.0052030615   1.2926277      0.022667277  
    491000   0.98611266    -0.21478344     0.0071935601   1.2706186      0.022094327  
    492000   1.0086642     -0.22116643     0.0071437765   1.2979911      0.020165988  
    493000   1.0268176     -0.21040706     0.0053434911   1.3341626      0.021420744  
    494000   1.0050652     -0.20575009     0.0077320323   1.3086007      0.021820316  
    495000   1.0380169     -0.19050971     0.0085553931   1.3740599      0.023351044  
    496000   1.0050489     -0.20786781     0.0069296873   1.3056563      0.021011708  
    497000   1.0066592     -0.21663579     0.0099963145   1.3023688      0.022108174  
    498000   0.98253687    -0.2143039      0.0035158564   1.2620603      0.022358502  
    499000   1.0018202     -0.21532684     0.0065504945   1.2929782      0.022969418  
    500000   0.97277452    -0.22030044     0.0088747239   1.2467886      0.02003694   
Loop time of 54.5849 on 1 procs for 500000 steps with 1540 atoms

Performance: 3957135.381 tau/day, 9160.036 timesteps/s, 14.106 Matom-step/s
99.9% CPU use with 1 MPI tasks x 1 OpenMP threads

MPI task timing breakdown:
Section |  min time  |  avg time  |  max time  |%varavg| %total
---------------------------------------------------------------
Pair    | 6.7791     | 6.7791     | 6.7791     |   0.0 | 12.42
Bond    | 0.092692   | 0.092692   | 0.092692   |   0.0 |  0.17
Neigh   | 14.01      | 14.01      | 14.01      |   0.0 | 25.67
Comm    | 2.1009     | 2.1009     | 2.1009     |   0.0 |  3.85
Output  | 0.28826    | 0.28826    | 0.28826    |   0.0 |  0.53
Modify  | 30.023     | 30.023     | 30.023     |   0.0 | 55.00
Other   |            | 1.292      |            |       |  2.37

Nlocal:           1540 ave        1540 max        1540 min
Histogram: 1 0 0 0 0 0 0 0 0 0
Nghost:            715 ave         715 max         715 min
Histogram: 1 0 0 0 0 0 0 0 0 0
Neighs:           1876 ave        1876 max        1876 min
Histogram: 1 0 0 0 0 0 0 0 0 0

Total # of neighbors = 1876
Ave neighs/atom = 1.2181818
Ave special neighs/atom = 0.025974026
Neighbor list builds = 62434
Dangerous builds = 0
Total wall time: 0:00:54
