ITEM: TIMESTEP
0
ITEM: NUMBER OF ATOMS
690
ITEM: BOX BOUNDS ff ff ff
-4.0000000000000000e+01 4.0000000000000000e+01
-4.0000000000000000e+01 4.0000000000000000e+01
-4.0000000000000000e+01 4.0000000000000000e+01
ITEM: ATOMS id type xs ys zs
24 1 0.436071 0.493969 0.192516
1 1 0.440269 0.477178 0.195902
25 1 0.436732 0.488108 0.162671
2 1 0.442627 0.471916 0.165999
3 1 0.44539 0.466815 0.18262
5 1 0.455958 0.453094 0.185948
4 1 0.448535 0.462093 0.152714
6 1 0.459818 0.44907 0.156025
8 1 0.464553 0.445474 0.172585
9 1 0.479948 0.437571 0.175871
10 1 0.485652 0.436211 0.192511
11 1 0.491141 0.434932 0.162577
23 1 0.43553 0.499684 0.175853
12 1 0.5029 0.434749 0.195766
13 1 0.508379 0.435532 0.165771
14 1 0.514191 0.436523 0.182357
16 1 0.530395 0.442666 0.185533
15 1 0.519381 0.438343 0.152398
17 1 0.535106 0.445434 0.155576
19 1 0.540003 0.448904 0.172121
20 1 0.551846 0.461538 0.17539
21 1 0.554803 0.466604 0.19202
27 1 0.561208 0.482708 0.195239
22 1 0.55739 0.471612 0.162088
30 1 0.561972 0.488234 0.165267
32 1 0.562922 0.494031 0.181853
33 1 0.562567 0.499592 0.15191
44 1 0.49648 0.564832 0.172202
43 1 0.479469 0.561858 0.175657
42 1 0.474284 0.559544 0.192343
40 1 0.459649 0.55031 0.195749
41 1 0.468836 0.557094 0.162496
39 1 0.455431 0.546297 0.165836
38 1 0.451498 0.542095 0.182465
36 1 0.442022 0.52761 0.185788
37 1 0.448186 0.537401 0.152568
34 1 0.439696 0.522415 0.155896
26 1 0.437821 0.516838 0.172484
28 1 0.560926 0.516756 0.155146
55 1 0.559466 0.522495 0.171712
54 1 0.551589 0.537915 0.175068
53 1 0.548041 0.542423 0.191745
51 1 0.534996 0.553768 0.195212
52 1 0.543818 0.54661 0.161907
50 1 0.529679 0.556437 0.16532
49 1 0.524674 0.55912 0.181983
47 1 0.508079 0.563989 0.185448
48 1 0.519003 0.560808 0.152112
45 1 0.502242 0.564678 0.155573
31 1 0.562323 0.511351 0.185082
130 1 0.436072 0.494073 0.285664
81 1 0.437117 0.488349 0.255742
133 1 0.438419 0.482768 0.272379
112 1 0.44545 0.466979 0.275774
83 1 0.438501 0.482698 0.225833
56 1 0.44036 0.477265 0.242473
58 1 0.448701 0.462128 0.245858
114 1 0.45234 0.457666 0.262511
116 1 0.465186 0.446081 0.265907
117 1 0.469945 0.443107 0.282659
118 1 0.485524 0.435645 0.286127
57 1 0.442627 0.471929 0.212545
59 1 0.452186 0.457513 0.215894
60 1 0.456212 0.453423 0.232537
61 1 0.470054 0.44304 0.235863
63 1 0.475118 0.440251 0.252482
65 1 0.491259 0.433945 0.255726
120 1 0.495712 0.431256 0.272491
7 1 0.460299 0.449321 0.202594
62 1 0.474942 0.440104 0.205915
64 1 0.480442 0.438071 0.22255
66 1 0.4974 0.43449 0.225863
113 1 0.448503 0.462238 0.292448
115 1 0.460462 0.449796 0.2959
78 1 0.435948 0.499791 0.222458
67 1 0.503259 0.433733 0.242531
69 1 0.520636 0.436654 0.245368
123 1 0.527128 0.438485 0.261532
125 1 0.540263 0.449445 0.26556
126 1 0.544041 0.453737 0.282453
127 1 0.554485 0.467674 0.285543
68 1 0.508757 0.435157 0.212377
70 1 0.525407 0.439953 0.215507
71 1 0.530698 0.442342 0.232087
72 1 0.544228 0.453217 0.235475
74 1 0.54798 0.457813 0.252133
76 1 0.557213 0.472424 0.25535
129 1 0.559544 0.477794 0.271977
137 1 0.563912 0.494585 0.275036
18 1 0.535357 0.445676 0.202157
73 1 0.548167 0.457303 0.20544
75 1 0.551556 0.46202 0.222072
77 1 0.559514 0.477399 0.225274
84 1 0.5613 0.48301 0.241877
85 1 0.562498 0.488422 0.211846
122 1 0.520913 0.437454 0.294137
124 1 0.535607 0.446698 0.296436
149 1 0.497264 0.564014 0.265587
148 1 0.491679 0.563249 0.282284
147 1 0.475018 0.558674 0.285664
99 1 0.491274 0.563796 0.235597
98 1 0.485767 0.562595 0.252298
95 1 0.469587 0.556502 0.255686
145 1 0.464746 0.553435 0.272345
143 1 0.451661 0.542136 0.275667
97 1 0.485319 0.563029 0.205632
96 1 0.47994 0.56132 0.222327
94 1 0.464419 0.553702 0.225712
93 1 0.459892 0.550224 0.242374
91 1 0.447984 0.537697 0.245709
141 1 0.444839 0.532869 0.262346
134 1 0.438062 0.516962 0.265675
132 1 0.43673 0.511352 0.282295
92 1 0.455423 0.54646 0.212404
90 1 0.444767 0.532827 0.215741
89 1 0.442097 0.527781 0.232393
82 1 0.436876 0.511296 0.235744
80 1 0.43613 0.505611 0.252381
35 1 0.439815 0.522376 0.202451
79 1 0.436052 0.505504 0.205816
142 1 0.448054 0.537604 0.292294
140 1 0.439724 0.522441 0.295624
88 1 0.563883 0.500123 0.245013
138 1 0.564028 0.505956 0.261584
159 1 0.560576 0.52291 0.264812
158 1 0.558867 0.528413 0.281396
157 1 0.549268 0.542713 0.284972
86 1 0.562844 0.511521 0.231636
110 1 0.557754 0.528042 0.234938
109 1 0.555367 0.533228 0.251566
106 1 0.544646 0.546742 0.255044
155 1 0.54054 0.550453 0.27177
153 1 0.525563 0.558997 0.275313
29 1 0.561307 0.517028 0.2017
108 1 0.554769 0.533036 0.205026
107 1 0.551768 0.53792 0.221678
105 1 0.53993 0.550487 0.225134
104 1 0.535444 0.553872 0.241833
102 1 0.519867 0.561271 0.24537
151 1 0.514473 0.562597 0.2621
103 1 0.530198 0.556801 0.211892
101 1 0.514043 0.562899 0.215393
100 1 0.508535 0.563862 0.232124
46 1 0.50252 0.564528 0.202158
87 1 0.563368 0.50572 0.21504
139 1 0.564925 0.50051 0.291561
135 1 0.563455 0.517833 0.294607
152 1 0.520295 0.560684 0.292027
150 1 0.503267 0.563542 0.295561
237 1 0.435907 0.48876 0.395706
239 1 0.437327 0.482901 0.365681
214 1 0.439111 0.477612 0.382398
216 1 0.447478 0.462493 0.385797
184 1 0.435526 0.494114 0.332259
160 1 0.439479 0.477312 0.335682
161 1 0.441602 0.472117 0.352397
163 1 0.451277 0.457814 0.355833
218 1 0.455179 0.453835 0.372529
220 1 0.469293 0.44392 0.375995
221 1 0.474497 0.441646 0.39265
222 1 0.491279 0.437604 0.396117
131 1 0.436747 0.488384 0.3023
111 1 0.442276 0.472022 0.305712
162 1 0.444816 0.467006 0.322401
164 1 0.455692 0.453587 0.325846
165 1 0.459808 0.449899 0.342569
167 1 0.474702 0.441229 0.346072
169 1 0.480026 0.439522 0.362767
223 1 0.497098 0.437038 0.366264
166 1 0.464899 0.446386 0.312608
168 1 0.480389 0.438692 0.316092
170 1 0.485761 0.437578 0.332866
119 1 0.491604 0.435253 0.302857
182 1 0.435463 0.499834 0.315597
183 1 0.434904 0.499991 0.362262
225 1 0.502826 0.437445 0.382873
227 1 0.519706 0.441141 0.386225
171 1 0.502947 0.436493 0.33644
172 1 0.508595 0.437755 0.353031
174 1 0.525057 0.443055 0.356306
229 1 0.530187 0.445846 0.372895
231 1 0.544277 0.455873 0.376128
232 1 0.548516 0.45971 0.392854
233 1 0.559797 0.472782 0.396203
121 1 0.508967 0.435354 0.306739
173 1 0.514397 0.437805 0.323243
175 1 0.530278 0.444902 0.326383
176 1 0.535019 0.448587 0.34289
178 1 0.54802 0.460062 0.345986
180 1 0.551981 0.464272 0.362591
234 1 0.562185 0.478206 0.365766
242 1 0.56633 0.481609 0.382451
177 1 0.539824 0.451154 0.312944
179 1 0.551617 0.463868 0.315948
181 1 0.555134 0.469025 0.332535
187 1 0.563473 0.484371 0.335712
188 1 0.566487 0.489413 0.352666
128 1 0.557544 0.47307 0.302147
136 1 0.563758 0.48924 0.30512
190 1 0.565867 0.49502 0.321639
255 1 0.492019 0.562064 0.375684
254 1 0.486408 0.560864 0.39241
253 1 0.470032 0.555251 0.395536
201 1 0.486403 0.561306 0.345646
200 1 0.480873 0.559564 0.362292
251 1 0.465075 0.552506 0.365553
250 1 0.460093 0.549429 0.382139
248 1 0.447243 0.537711 0.385296
202 1 0.497634 0.563261 0.312254
199 1 0.480634 0.560246 0.315661
198 1 0.475338 0.558074 0.332313
197 1 0.460291 0.549544 0.3356
196 1 0.455818 0.545784 0.352191
194 1 0.444516 0.532691 0.355467
246 1 0.441356 0.527833 0.372054
238 1 0.435746 0.511526 0.375569
236 1 0.434776 0.506029 0.392326
146 1 0.469914 0.55605 0.302321
144 1 0.455773 0.546093 0.30565
195 1 0.451746 0.541907 0.322258
193 1 0.441911 0.527681 0.325551
192 1 0.439414 0.522427 0.342161
185 1 0.435342 0.505645 0.34556
186 1 0.437831 0.516961 0.312238
243 1 0.57116 0.514582 0.371659
265 1 0.561989 0.529437 0.375347
264 1 0.558547 0.533419 0.392637
263 1 0.548072 0.546992 0.396797
212 1 0.559623 0.536778 0.3452
211 1 0.555033 0.539056 0.361931
261 1 0.541625 0.549952 0.364449
259 1 0.520174 0.563698 0.386083
213 1 0.562886 0.523699 0.311124
210 1 0.554138 0.538714 0.314947
209 1 0.550723 0.543689 0.331658
208 1 0.536496 0.553613 0.335045
207 1 0.531541 0.556461 0.351714
205 1 0.515153 0.562085 0.355605
257 1 0.509227 0.563438 0.372339
156 1 0.545562 0.546752 0.30173
154 1 0.531136 0.556306 0.305222
206 1 0.52594 0.5585 0.3219
204 1 0.509207 0.562675 0.32551
203 1 0.503613 0.563055 0.342266
191 1 0.572093 0.505972 0.356249
189 1 0.567086 0.512345 0.323772
288 1 0.434951 0.494474 0.425746
240 1 0.437346 0.483242 0.412387
215 1 0.444267 0.467413 0.415747
217 1 0.451083 0.458117 0.402464
219 1 0.464206 0.44689 0.405884
273 1 0.469149 0.444049 0.422514
275 1 0.485472 0.438485 0.426006
224 1 0.49697 0.437353 0.412761
340 1 0.435447 0.494265 0.472609
316 1 0.439055 0.47737 0.475744
318 1 0.44077 0.471704 0.4923
320 1 0.448865 0.456358 0.494704
289 1 0.43586 0.488779 0.442477
267 1 0.441368 0.472356 0.445728
268 1 0.4439 0.467015 0.46232
270 1 0.454423 0.453189 0.465557
321 1 0.458214 0.44867 0.482113
323 1 0.473552 0.440495 0.48599
269 1 0.44735 0.462563 0.43238
271 1 0.459345 0.450104 0.435748
272 1 0.463845 0.446549 0.452361
274 1 0.479607 0.43959 0.455934
325 1 0.484973 0.438139 0.472685
276 1 0.491054 0.437633 0.442677
226 1 0.514102 0.439511 0.416143
228 1 0.525004 0.443315 0.402864
230 1 0.539878 0.452114 0.406212
283 1 0.544395 0.455641 0.422882
285 1 0.556016 0.468486 0.426276
235 1 0.56228 0.478308 0.412946
244 1 0.567474 0.49486 0.416778
327 1 0.502269 0.437546 0.47607
329 1 0.507915 0.438285 0.492736
331 1 0.524496 0.443152 0.496112
277 1 0.508303 0.438288 0.446105
278 1 0.513748 0.439464 0.462807
280 1 0.529892 0.445661 0.466175
333 1 0.534741 0.448547 0.482848
335 1 0.548047 0.459541 0.486293
279 1 0.519546 0.441139 0.43281
281 1 0.53513 0.448652 0.436188
282 1 0.539701 0.451859 0.45289
284 1 0.552103 0.463864 0.456314
337 1 0.555283 0.468528 0.47301
344 1 0.562935 0.48399 0.476456
347 1 0.564687 0.489481 0.493068
286 1 0.558783 0.473333 0.443037
293 1 0.565086 0.489385 0.446591
295 1 0.565873 0.495144 0.463211
256 1 0.497658 0.562302 0.405993
304 1 0.49182 0.561323 0.422616
302 1 0.474885 0.557397 0.425882
252 1 0.464628 0.55288 0.41209
249 1 0.45013 0.54334 0.414447
247 1 0.443111 0.533499 0.401828
241 1 0.436156 0.517578 0.405651
290 1 0.434237 0.511734 0.422388
361 1 0.486076 0.561118 0.486034
305 1 0.497665 0.561951 0.452655
303 1 0.480619 0.559277 0.456041
359 1 0.475017 0.557787 0.472728
356 1 0.459644 0.549814 0.476229
355 1 0.455469 0.546009 0.492805
353 1 0.444504 0.532665 0.496117
301 1 0.469672 0.555604 0.442786
300 1 0.454381 0.548054 0.446931
299 1 0.450235 0.542902 0.463102
298 1 0.440436 0.528291 0.466065
351 1 0.439082 0.522546 0.48275
341 1 0.435539 0.505593 0.4861
297 1 0.434454 0.522692 0.436142
291 1 0.435429 0.51741 0.452871
287 1 0.434701 0.500105 0.456015
245 1 0.568613 0.506858 0.404114
266 1 0.563362 0.523357 0.406468
314 1 0.560347 0.528526 0.42307
312 1 0.550245 0.5426 0.426348
262 1 0.54214 0.550614 0.412968
260 1 0.526421 0.558618 0.415919
258 1 0.515005 0.562484 0.402798
346 1 0.565258 0.51829 0.483212
373 1 0.558292 0.534454 0.486069
296 1 0.567059 0.50069 0.433333
292 1 0.564567 0.517865 0.4365
315 1 0.562667 0.523376 0.453093
313 1 0.553877 0.538265 0.456242
371 1 0.550242 0.542754 0.472812
368 1 0.536301 0.553052 0.476192
367 1 0.531002 0.555583 0.492873
365 1 0.514606 0.561012 0.496179
311 1 0.545842 0.546416 0.442906
310 1 0.531264 0.555709 0.446107
309 1 0.525892 0.557818 0.462778
307 1 0.509083 0.561758 0.466075
363 1 0.503301 0.562348 0.482725
308 1 0.520598 0.559739 0.432623
306 1 0.503386 0.56197 0.435956
349 1 0.567698 0.506522 0.496368
294 1 0.565858 0.512451 0.466544
394 1 0.434029 0.494259 0.566013
396 1 0.436152 0.48842 0.536237
398 1 0.436897 0.482848 0.552931
374 1 0.443688 0.46689 0.556674
343 1 0.4373 0.482359 0.506096
317 1 0.438584 0.47707 0.52304
319 1 0.44461 0.46115 0.527346
376 1 0.449625 0.456788 0.54355
378 1 0.463321 0.445747 0.546436
379 1 0.46898 0.44387 0.5631
381 1 0.485401 0.438325 0.566311
322 1 0.468332 0.439393 0.516473
380 1 0.473664 0.43973 0.533201
382 1 0.490801 0.437148 0.536291
383 1 0.496705 0.437038 0.552858
324 1 0.479203 0.438101 0.502713
326 1 0.496458 0.437052 0.506057
447 1 0.433958 0.487741 0.582252
424 1 0.44127 0.472385 0.586517
375 1 0.447522 0.462613 0.573323
377 1 0.459749 0.450468 0.57662
429 1 0.46477 0.447649 0.593281
431 1 0.480372 0.440133 0.596427
433 1 0.491342 0.437424 0.582896
339 1 0.435536 0.499648 0.502764
384 1 0.513939 0.438714 0.556044
328 1 0.5022 0.437206 0.52278
330 1 0.519145 0.440736 0.52605
386 1 0.524711 0.442477 0.54266
388 1 0.539692 0.451068 0.546034
389 1 0.544368 0.454321 0.562681
391 1 0.555451 0.467537 0.566226
332 1 0.529667 0.445488 0.512754
334 1 0.543851 0.455354 0.516167
390 1 0.54803 0.459136 0.532822
392 1 0.558056 0.473156 0.536358
393 1 0.560654 0.47806 0.55307
401 1 0.565141 0.494723 0.556656
336 1 0.551766 0.463869 0.502949
338 1 0.560809 0.478599 0.506415
345 1 0.562813 0.483801 0.523179
435 1 0.508673 0.437121 0.586023
385 1 0.519743 0.439779 0.572617
387 1 0.535506 0.446892 0.575923
440 1 0.540567 0.449557 0.592552
442 1 0.552576 0.461898 0.596179
444 1 0.558333 0.47212 0.583
451 1 0.563695 0.488467 0.586639
412 1 0.497385 0.565092 0.545984
411 1 0.49232 0.567332 0.562669
362 1 0.491604 0.562809 0.516132
410 1 0.485629 0.562967 0.53278
409 1 0.468963 0.557357 0.535687
408 1 0.462749 0.554871 0.551837
407 1 0.451154 0.542394 0.555988
360 1 0.480465 0.560129 0.502703
358 1 0.4647 0.553053 0.505976
357 1 0.459847 0.550105 0.52255
354 1 0.448036 0.537445 0.526061
405 1 0.444842 0.532687 0.542762
399 1 0.437745 0.516968 0.546238
397 1 0.435485 0.511792 0.563003
352 1 0.442069 0.527534 0.512774
342 1 0.436713 0.51113 0.516128
395 1 0.435802 0.505628 0.532858
465 1 0.496584 0.564837 0.593238
463 1 0.479403 0.562161 0.597048
461 1 0.468131 0.55786 0.5844
458 1 0.454692 0.546883 0.586826
406 1 0.44752 0.538285 0.572904
404 1 0.438193 0.523627 0.576134
448 1 0.434248 0.519958 0.592886
402 1 0.566221 0.506434 0.543461
422 1 0.562496 0.52337 0.547382
421 1 0.558956 0.528107 0.563899
419 1 0.54854 0.542037 0.56704
348 1 0.569473 0.51139 0.513134
420 1 0.557688 0.534483 0.534775
418 1 0.545226 0.546582 0.537065
417 1 0.540118 0.549792 0.553582
416 1 0.525053 0.558356 0.556628
372 1 0.554983 0.54029 0.502227
370 1 0.541132 0.550285 0.50625
369 1 0.536166 0.552949 0.52315
366 1 0.520148 0.559796 0.526303
414 1 0.514425 0.561832 0.542906
364 1 0.50894 0.562246 0.512861
350 1 0.567142 0.500489 0.526722
403 1 0.565075 0.500097 0.573465
400 1 0.562606 0.517138 0.577086
476 1 0.560158 0.52229 0.593693
474 1 0.5516 0.537319 0.59698
472 1 0.544032 0.545885 0.583593
469 1 0.529859 0.555832 0.586773
415 1 0.519524 0.560504 0.573308
413 1 0.502841 0.565093 0.576548
500 1 0.436737 0.489006 0.677042
555 1 0.438286 0.483379 0.693635
532 1 0.44548 0.467633 0.696846
502 1 0.43778 0.483504 0.647121
477 1 0.440044 0.478063 0.663675
478 1 0.448778 0.463103 0.666844
480 1 0.452432 0.458564 0.683442
482 1 0.465535 0.44727 0.686684
445 1 0.433214 0.494237 0.614781
423 1 0.439067 0.477889 0.617194
425 1 0.442194 0.472884 0.633736
479 1 0.452377 0.458896 0.636847
481 1 0.456573 0.454747 0.653429
483 1 0.470664 0.444664 0.656628
484 1 0.475696 0.441949 0.673303
486 1 0.492139 0.436729 0.676682
540 1 0.497807 0.435692 0.693393
426 1 0.444446 0.467999 0.603452
427 1 0.455937 0.454941 0.606716
428 1 0.460673 0.45123 0.623345
430 1 0.47556 0.442332 0.626557
485 1 0.481178 0.440088 0.643187
487 1 0.498089 0.435978 0.646429
432 1 0.486146 0.438547 0.613
542 1 0.515126 0.436183 0.696919
488 1 0.503563 0.435241 0.663375
489 1 0.520616 0.435417 0.667545
491 1 0.526565 0.438394 0.683741
492 1 0.541568 0.447607 0.686664
434 1 0.503297 0.436209 0.616043
436 1 0.509258 0.435781 0.632578
490 1 0.526444 0.438234 0.634918
493 1 0.549128 0.450569 0.656707
494 1 0.550519 0.455619 0.67348
496 1 0.558302 0.471093 0.676733
550 1 0.560115 0.476623 0.693347
559 1 0.563467 0.493598 0.696633
437 1 0.514644 0.437504 0.602576
438 1 0.531217 0.442756 0.605749
439 1 0.536814 0.444555 0.622312
441 1 0.549709 0.456167 0.626251
495 1 0.553832 0.460569 0.643032
497 1 0.560317 0.476562 0.646536
504 1 0.56181 0.482021 0.663295
443 1 0.55577 0.466241 0.613007
449 1 0.562023 0.482336 0.616582
452 1 0.562894 0.487868 0.633294
454 1 0.564084 0.493857 0.603402
508 1 0.563527 0.499242 0.666666
519 1 0.496699 0.564365 0.686786
518 1 0.490883 0.563758 0.656803
517 1 0.485259 0.562838 0.673467
515 1 0.469023 0.556913 0.676833
565 1 0.464108 0.55409 0.693537
563 1 0.451058 0.542772 0.696935
464 1 0.485173 0.562809 0.626875
516 1 0.479651 0.561213 0.643509
514 1 0.464019 0.553764 0.646828
513 1 0.459359 0.550573 0.663522
512 1 0.447287 0.538231 0.666928
511 1 0.444207 0.533485 0.683627
503 1 0.437521 0.517569 0.687061
462 1 0.474168 0.559494 0.613618
460 1 0.459353 0.550387 0.616869
459 1 0.454928 0.546608 0.6335
510 1 0.443797 0.53332 0.636842
509 1 0.441185 0.528417 0.653614
501 1 0.43586 0.512027 0.657154
499 1 0.435487 0.506261 0.673765
457 1 0.450851 0.542579 0.603502
456 1 0.440251 0.528946 0.606761
455 1 0.438086 0.523183 0.623487
446 1 0.433793 0.506356 0.62737
498 1 0.434562 0.500571 0.643929
507 1 0.563228 0.50505 0.68329
530 1 0.559358 0.521906 0.686639
505 1 0.562379 0.510757 0.653401
529 1 0.557043 0.527205 0.656754
528 1 0.554382 0.5323 0.673364
526 1 0.543783 0.545964 0.676697
575 1 0.539561 0.549825 0.693336
573 1 0.524843 0.558902 0.696697
450 1 0.561332 0.516532 0.623533
475 1 0.55445 0.532383 0.626867
527 1 0.551214 0.537162 0.643467
525 1 0.539386 0.549775 0.646758
524 1 0.534836 0.553243 0.663391
523 1 0.51937 0.56096 0.666734
522 1 0.513899 0.562591 0.683399
473 1 0.547742 0.54172 0.613554
471 1 0.534697 0.55309 0.616783
470 1 0.529842 0.556176 0.633416
521 1 0.51375 0.562457 0.636732
520 1 0.50816 0.563601 0.65341
468 1 0.524606 0.558533 0.603383
467 1 0.508027 0.563578 0.606655
466 1 0.502376 0.564166 0.62339
506 1 0.56329 0.505126 0.63677
453 1 0.563012 0.511072 0.606922
552 1 0.436024 0.494606 0.706992
536 1 0.470333 0.444046 0.703321
538 1 0.486386 0.437606 0.706689
606 1 0.438477 0.482938 0.786809
604 1 0.436229 0.494419 0.753558
581 1 0.440235 0.477573 0.756815
582 1 0.442522 0.472216 0.773429
584 1 0.452042 0.45775 0.776697
586 1 0.45592 0.453455 0.793327
641 1 0.469901 0.443285 0.796643
553 1 0.436971 0.488832 0.723584
531 1 0.442596 0.47245 0.726836
583 1 0.445346 0.467314 0.743444
585 1 0.456171 0.453809 0.746704
587 1 0.460409 0.449883 0.763342
588 1 0.475196 0.440909 0.766674
589 1 0.480526 0.438778 0.783333
591 1 0.497509 0.435498 0.786698
533 1 0.448681 0.46274 0.713454
534 1 0.460698 0.450277 0.716703
535 1 0.465217 0.446717 0.733349
537 1 0.480684 0.43899 0.736691
590 1 0.486138 0.437282 0.753357
539 1 0.49191 0.436285 0.723373
612 1 0.563936 0.493737 0.743235
558 1 0.56308 0.48797 0.726606
549 1 0.558134 0.471389 0.723322
609 1 0.563394 0.488119 0.773249
607 1 0.562135 0.48244 0.756616
601 1 0.555576 0.466424 0.753355
547 1 0.552511 0.461462 0.736734
546 1 0.545303 0.452135 0.703356
548 1 0.555557 0.466102 0.706696
545 1 0.540733 0.448814 0.733427
592 1 0.503322 0.435432 0.756743
593 1 0.509029 0.435853 0.773391
595 1 0.525743 0.440296 0.776732
597 1 0.530919 0.442784 0.793372
652 1 0.544827 0.453056 0.796686
541 1 0.509176 0.435801 0.726802
594 1 0.514797 0.436752 0.743448
596 1 0.531054 0.442622 0.746774
598 1 0.53592 0.445677 0.76341
599 1 0.548885 0.457122 0.766719
600 1 0.55237 0.461747 0.783343
602 1 0.560428 0.477063 0.786629
543 1 0.520553 0.437893 0.713533
544 1 0.536228 0.445196 0.716795
560 1 0.563777 0.499397 0.713251
569 1 0.491023 0.563944 0.70345
567 1 0.474317 0.559508 0.706845
554 1 0.43646 0.511898 0.703688
677 1 0.491434 0.563881 0.79674
624 1 0.485577 0.562919 0.766797
623 1 0.480126 0.561347 0.783474
621 1 0.464546 0.553839 0.786876
570 1 0.496884 0.564373 0.733429
568 1 0.479844 0.561458 0.73683
622 1 0.474533 0.559454 0.753514
620 1 0.459697 0.550596 0.756925
619 1 0.455455 0.546743 0.773576
617 1 0.444721 0.533181 0.776931
616 1 0.442067 0.528066 0.793571
661 1 0.436959 0.511538 0.796899
566 1 0.469184 0.557031 0.72352
564 1 0.455184 0.546892 0.726935
618 1 0.451311 0.542688 0.743611
615 1 0.441899 0.528184 0.746966
614 1 0.439792 0.522804 0.763603
605 1 0.436152 0.505886 0.766915
603 1 0.436039 0.500081 0.783544
562 1 0.447564 0.538254 0.713612
561 1 0.439478 0.522973 0.717007
556 1 0.437888 0.517416 0.733636
551 1 0.43582 0.500236 0.736942
610 1 0.562954 0.511012 0.746552
613 1 0.56404 0.505416 0.776539
579 1 0.557222 0.527255 0.703268
577 1 0.547835 0.541768 0.706632
611 1 0.56339 0.511166 0.793174
688 1 0.557897 0.527566 0.796501
608 1 0.561769 0.516672 0.763182
635 1 0.554916 0.53255 0.766531
634 1 0.551856 0.537399 0.783191
632 1 0.539977 0.549985 0.786559
557 1 0.561361 0.516522 0.716581
580 1 0.559708 0.522034 0.733216
578 1 0.551553 0.537294 0.736577
633 1 0.548079 0.54185 0.753228
631 1 0.535182 0.553357 0.756609
630 1 0.530373 0.556419 0.773259
628 1 0.514269 0.562715 0.776643
627 1 0.508719 0.563875 0.793318
576 1 0.543971 0.545997 0.72327
574 1 0.530124 0.556335 0.726655
629 1 0.52504 0.558914 0.743319
626 1 0.508434 0.563732 0.746709
625 1 0.502792 0.564322 0.763379
572 1 0.519543 0.560999 0.713359
571 1 0.502573 0.564301 0.716755
658 1 0.436963 0.494095 0.846697
660 1 0.437395 0.488514 0.816776
663 1 0.438806 0.482834 0.833379
637 1 0.444989 0.46675 0.836616
636 1 0.440278 0.477389 0.803422
638 1 0.448285 0.462023 0.806702
639 1 0.451678 0.457322 0.823366
640 1 0.464775 0.44601 0.826661
642 1 0.469876 0.443053 0.843234
644 1 0.486205 0.437565 0.846558
643 1 0.475038 0.440787 0.813309
645 1 0.491742 0.436256 0.816642
646 1 0.497518 0.4358 0.833273
648 1 0.514715 0.436677 0.836568
647 1 0.50327 0.435465 0.803342
649 1 0.520354 0.438232 0.806713
650 1 0.525823 0.440074 0.823378
651 1 0.540573 0.449132 0.826683
653 1 0.544877 0.4532 0.843253
655 1 0.555026 0.467132 0.846533
654 1 0.548682 0.457308 0.813326
656 1 0.558001 0.471898 0.816607
657 1 0.560148 0.477334 0.833215
666 1 0.564485 0.494009 0.836453
665 1 0.562151 0.482623 0.803252
668 1 0.564616 0.499768 0.806555
679 1 0.497351 0.564568 0.826701
678 1 0.49157 0.563874 0.843297
675 1 0.475187 0.558623 0.846713
676 1 0.485904 0.562777 0.813422
674 1 0.469775 0.556529 0.81682
673 1 0.464952 0.553408 0.833458
671 1 0.451632 0.542507 0.836773
672 1 0.459985 0.550379 0.803539
670 1 0.447914 0.537973 0.806907
669 1 0.444667 0.533205 0.823573
664 1 0.438103 0.517185 0.826889
662 1 0.437028 0.511339 0.843447
659 1 0.436343 0.505815 0.813524
667 1 0.564581 0.505583 0.8232
690 1 0.56055 0.522409 0.826496
689 1 0.558182 0.527811 0.843066
686 1 0.548166 0.541826 0.846385
687 1 0.555215 0.53263 0.813159
685 1 0.544343 0.546102 0.816488
684 1 0.540004 0.549891 0.833126
682 1 0.525607 0.559343 0.83646
683 1 0.535418 0.553479 0.803215
681 1 0.51999 0.561321 0.806615
680 1 0.514584 0.563123 0.823301
ITEM: TIMESTEP
1000
ITEM: NUMBER OF ATOMS
690
ITEM: BOX BOUNDS ff ff ff
-4.0000000000000000e+01 4.0000000000000000e+01
-4.0000000000000000e+01 4.0000000000000000e+01
-4.0000000000000000e+01 4.0000000000000000e+01
ITEM: ATOMS id type xs ys zs
24 1 0.445008 0.490215 0.19305
1 1 0.445403 0.472852 0.196726
25 1 0.444202 0.483746 0.163872
2 1 0.44725 0.46654 0.166983
3 1 0.447689 0.460804 0.18388
5 1 0.45279 0.443831 0.187862
4 1 0.449289 0.454363 0.154346
6 1 0.45506 0.438095 0.157938
8 1 0.459298 0.433527 0.174439
9 1 0.476656 0.42916 0.177019
10 1 0.482961 0.428553 0.193457
11 1 0.487711 0.431521 0.163611
23 1 0.445067 0.496355 0.17666
12 1 0.500096 0.431423 0.196455
13 1 0.50465 0.434754 0.166959
14 1 0.510962 0.435693 0.183396
16 1 0.525654 0.44508 0.187004
15 1 0.513812 0.441964 0.153747
17 1 0.528039 0.451601 0.157534
19 1 0.53336 0.454412 0.174271
20 1 0.543972 0.467544 0.17715
21 1 0.547409 0.471717 0.193916
27 1 0.554951 0.487148 0.197316
22 1 0.550195 0.477754 0.164552
30 1 0.55877 0.49349 0.16753
32 1 0.559627 0.498775 0.184374
33 1 0.565197 0.504373 0.15462
44 1 0.50138 0.565188 0.173384
43 1 0.484303 0.561903 0.176828
42 1 0.478973 0.559431 0.193464
40 1 0.465197 0.54873 0.196954
41 1 0.47291 0.55757 0.164073
39 1 0.461317 0.544927 0.167887
38 1 0.458748 0.539551 0.183952
36 1 0.450807 0.524511 0.187312
37 1 0.45313 0.536965 0.154741
34 1 0.447427 0.520583 0.15709
26 1 0.447238 0.513725 0.173473
28 1 0.567935 0.521739 0.158431
55 1 0.564362 0.526625 0.174907
54 1 0.55759 0.542641 0.177813
53 1 0.552875 0.546009 0.194553
51 1 0.539202 0.556723 0.197824
52 1 0.550426 0.551681 0.164245
50 1 0.535302 0.56029 0.167117
49 1 0.529371 0.561342 0.184042
47 1 0.512421 0.564779 0.18719
48 1 0.525143 0.565085 0.153808
45 1 0.507953 0.566968 0.156511
31 1 0.563636 0.515386 0.18823
130 1 0.441981 0.493473 0.285285
81 1 0.443671 0.486595 0.256129
133 1 0.44409 0.481808 0.272773
112 1 0.450145 0.465795 0.276337
83 1 0.444848 0.479546 0.226738
56 1 0.445923 0.474893 0.243013
58 1 0.451441 0.458418 0.246771
114 1 0.455284 0.454848 0.263773
116 1 0.465934 0.440985 0.267555
117 1 0.47023 0.437998 0.284413
118 1 0.484842 0.429161 0.288079
57 1 0.446743 0.467811 0.213345
59 1 0.452356 0.451441 0.217156
60 1 0.45629 0.447385 0.233868
61 1 0.468799 0.435492 0.237217
63 1 0.474533 0.433511 0.254298
65 1 0.490136 0.427618 0.257648
120 1 0.49456 0.42426 0.274484
7 1 0.458565 0.441325 0.204334
62 1 0.472883 0.43145 0.207488
64 1 0.478823 0.430247 0.224087
66 1 0.495805 0.428799 0.227359
113 1 0.452227 0.461105 0.293052
115 1 0.461275 0.446785 0.297271
78 1 0.443839 0.497085 0.223114
67 1 0.501599 0.429052 0.244376
69 1 0.517922 0.435743 0.247051
123 1 0.524595 0.439276 0.263037
125 1 0.53677 0.450781 0.266885
126 1 0.540401 0.454613 0.283885
127 1 0.549038 0.469813 0.287475
68 1 0.506196 0.43261 0.213399
70 1 0.521329 0.440521 0.216525
71 1 0.526378 0.44344 0.233483
72 1 0.537971 0.456298 0.236992
74 1 0.542994 0.460256 0.253828
76 1 0.551913 0.475141 0.257253
129 1 0.554748 0.480349 0.274058
137 1 0.559724 0.49702 0.277592
18 1 0.529927 0.448149 0.203266
73 1 0.540645 0.461608 0.207002
75 1 0.544199 0.465797 0.223557
77 1 0.553294 0.480221 0.227523
84 1 0.556003 0.485523 0.243941
85 1 0.557604 0.491004 0.214491
122 1 0.52125 0.433296 0.296116
124 1 0.533668 0.446415 0.298222
149 1 0.498371 0.566276 0.267353
148 1 0.491483 0.565892 0.283718
147 1 0.474123 0.56177 0.286214
99 1 0.493111 0.564641 0.237033
98 1 0.487136 0.563612 0.253576
95 1 0.471257 0.557053 0.256001
145 1 0.465454 0.555031 0.272601
143 1 0.452544 0.543656 0.275937
97 1 0.489079 0.563569 0.206601
96 1 0.483066 0.562359 0.223104
94 1 0.467902 0.553553 0.225892
93 1 0.462401 0.549874 0.242298
91 1 0.450944 0.536714 0.246259
141 1 0.44718 0.532654 0.262873
134 1 0.442455 0.515383 0.265626
132 1 0.440596 0.510397 0.281864
92 1 0.460016 0.544675 0.213174
90 1 0.451189 0.530097 0.217025
89 1 0.446923 0.525688 0.233436
82 1 0.443296 0.508807 0.235953
80 1 0.442037 0.503567 0.252672
35 1 0.448376 0.51877 0.203519
79 1 0.444623 0.502079 0.206363
142 1 0.447162 0.539778 0.291994
140 1 0.441908 0.523035 0.294471
88 1 0.560325 0.502232 0.247661
138 1 0.560554 0.508347 0.264362
159 1 0.558203 0.525477 0.267835
158 1 0.556525 0.53115 0.284535
157 1 0.547839 0.546272 0.288439
86 1 0.559647 0.513469 0.234406
110 1 0.556591 0.530462 0.23823
109 1 0.55346 0.536207 0.254558
106 1 0.544935 0.550985 0.257959
155 1 0.540209 0.554586 0.274615
153 1 0.525412 0.563912 0.277982
29 1 0.561941 0.520014 0.204982
108 1 0.557351 0.536092 0.208469
107 1 0.55376 0.541108 0.224852
105 1 0.542076 0.553937 0.227847
104 1 0.536491 0.557229 0.244297
102 1 0.520793 0.563201 0.247652
151 1 0.515277 0.565272 0.264257
103 1 0.533113 0.559521 0.214138
101 1 0.516596 0.564295 0.217327
100 1 0.51032 0.564989 0.233972
46 1 0.506157 0.564674 0.203756
87 1 0.560404 0.507812 0.217766
139 1 0.561188 0.503049 0.29444
135 1 0.560078 0.52053 0.297897
152 1 0.519087 0.566813 0.294209
150 1 0.501951 0.568682 0.297685
237 1 0.43954 0.488908 0.396376
239 1 0.443487 0.48497 0.366117
214 1 0.445022 0.47921 0.38312
216 1 0.453094 0.463934 0.387088
184 1 0.442128 0.495249 0.331305
160 1 0.446589 0.478663 0.335378
161 1 0.44781 0.474479 0.352717
163 1 0.455282 0.459026 0.356847
218 1 0.459245 0.454993 0.373522
220 1 0.471326 0.442971 0.377021
221 1 0.476674 0.439219 0.393487
222 1 0.492406 0.432571 0.396714
131 1 0.442966 0.488674 0.301798
111 1 0.447798 0.472191 0.305731
162 1 0.450043 0.46759 0.322395
164 1 0.458687 0.453142 0.326796
165 1 0.462283 0.449767 0.343555
167 1 0.47607 0.439489 0.34734
169 1 0.481157 0.437182 0.363962
223 1 0.497721 0.432899 0.367689
166 1 0.465899 0.44384 0.313954
168 1 0.481205 0.43529 0.317033
170 1 0.486225 0.434842 0.334064
119 1 0.491786 0.429724 0.304359
182 1 0.44207 0.500935 0.314447
183 1 0.43892 0.500953 0.361852
225 1 0.503849 0.432399 0.383414
227 1 0.520694 0.437464 0.386395
171 1 0.503267 0.433758 0.338133
172 1 0.509115 0.434871 0.354536
174 1 0.525249 0.441406 0.357473
229 1 0.530486 0.443992 0.373739
231 1 0.543227 0.455363 0.376981
232 1 0.547361 0.458627 0.393502
233 1 0.557196 0.472474 0.397208
121 1 0.509226 0.430874 0.308752
173 1 0.514093 0.435366 0.325042
175 1 0.52905 0.444205 0.327971
176 1 0.533707 0.448348 0.344138
178 1 0.545581 0.461002 0.347596
180 1 0.550214 0.464418 0.363905
234 1 0.55977 0.478839 0.36699
242 1 0.563892 0.481647 0.383568
177 1 0.536842 0.452914 0.3146
179 1 0.547419 0.466306 0.318116
181 1 0.552058 0.470887 0.334758
187 1 0.560287 0.486065 0.338196
188 1 0.563781 0.490812 0.354841
128 1 0.552607 0.475405 0.304134
136 1 0.559407 0.49154 0.307701
190 1 0.561599 0.496913 0.324276
255 1 0.485921 0.562926 0.377296
254 1 0.479841 0.561365 0.393504
253 1 0.463478 0.556944 0.396638
201 1 0.481016 0.563987 0.347112
200 1 0.475092 0.562131 0.363647
251 1 0.458871 0.555556 0.36605
250 1 0.454019 0.551803 0.38247
248 1 0.442366 0.538725 0.384783
202 1 0.494709 0.567737 0.314032
199 1 0.477122 0.564427 0.316853
198 1 0.470559 0.560749 0.33317
197 1 0.45534 0.552098 0.336386
196 1 0.450078 0.548193 0.352736
194 1 0.439594 0.534661 0.354897
246 1 0.437317 0.528915 0.371379
238 1 0.435583 0.5118 0.375217
236 1 0.436016 0.505808 0.392434
146 1 0.467288 0.559622 0.30291
144 1 0.452597 0.549605 0.305524
195 1 0.447523 0.545428 0.322178