ITEM: TIMESTEP
0
ITEM: NUMBER OF ATOMS
1150
ITEM: BOX BOUNDS pp pp pp
-2.0000000000000000e+01 2.0000000000000000e+01
-2.0000000000000000e+01 2.0000000000000000e+01
-2.0000000000000000e+01 2.0000000000000000e+01
ITEM: ATOMS id type xs ys zs
1117 2 0.887552 0.081871 0.00589963
778 1 0.513731 0.280077 0.0161255
319 1 0.462386 0.314409 0.0292212
380 1 0.434123 0.305096 0.00904333
333 1 0.500761 0.289538 0.0179752
75 1 0.334613 0.334846 0.0162222
791 1 0.534202 0.332525 0.00492214
208 1 0.656236 0.35222 0.0124769
979 1 0.691281 0.355731 0.0314957
83 1 0.334764 0.371051 0.0243979
5 1 0.561931 0.367035 0.00182495
785 1 0.266551 0.414664 0.00239509
203 1 0.294456 0.423827 0.0274084
348 1 0.286364 0.421209 0.0150885
15 1 0.421336 0.39851 0.0209641
583 1 0.567882 0.393066 0.0243598
315 1 0.681228 0.396279 0.0305096
475 1 0.696758 0.414902 0.0080743
699 1 0.329146 0.44953 0.000495144
732 1 0.475751 0.449947 0.00310632
76 1 0.572854 0.453606 0.0218759
935 1 0.638184 0.454023 0.0239001
323 1 0.421936 0.477465 0.0096172
591 1 0.478847 0.488294 0.00123186
565 1 0.549025 0.471396 0.0137215
272 1 0.350629 0.523071 0.0125468
616 1 0.331113 0.52444 0.0103807
439 1 0.686293 0.524112 0.0167816
35 1 0.300325 0.56951 0.0159403
376 1 0.426194 0.546247 0.0322579
996 1 0.484355 0.553177 0.0007856
97 1 0.583273 0.563144 0.0199169
34 1 0.292502 0.580934 0.0245196
151 1 0.297471 0.601967 0.0165265
943 1 0.423758 0.606697 0.00651793
711 1 0.448121 0.573199 0.0170835
574 1 0.371076 0.67405 0.0135067
1121 2 0.103214 0.721665 0.0213375
1116 2 0.225902 0.72928 0.0154631
558 1 0.380926 0.718109 0.0168415
301 1 0.578136 0.728254 0.0190521
1020 2 0.812921 0.76861 0.0216417
1044 2 0.771573 0.835605 0.0211173
1127 2 0.778897 0.929258 0.0345271
1119 2 0.387286 0.123584 0.0706528
410 1 0.394108 0.277371 0.0577959
26 1 0.52715 0.301885 0.0628827
55 1 0.575076 0.306198 0.038719
343 1 0.43124 0.344308 0.0660475
248 1 0.540363 0.382387 0.0687555
209 1 0.599564 0.36778 0.0656786
36 1 0.433444 0.392888 0.0436676
46 1 0.65148 0.426774 0.0701896
457 1 0.459925 0.460629 0.0709173
354 1 0.480303 0.456314 0.0391459
905 1 0.56262 0.449353 0.0463891
779 1 0.640028 0.452953 0.0533356
296 1 0.291484 0.471278 0.0380433
358 1 0.489973 0.474937 0.0484935
808 1 0.593204 0.484934 0.0584745
716 1 0.707204 0.483327 0.0479176
47 1 0.588565 0.51266 0.0462319
972 1 0.589874 0.509328 0.0517331
852 1 0.648779 0.526702 0.0658789
948 1 0.272181 0.547258 0.0430525
204 1 0.5764 0.558444 0.0402394
945 1 0.571968 0.564721 0.0455487
82 1 0.654135 0.550293 0.0581323
568 1 0.745941 0.537322 0.0459824
787 1 0.380769 0.582125 0.0581436
564 1 0.449312 0.588759 0.0442704
645 1 0.537608 0.583285 0.0468456
822 1 0.42605 0.621395 0.0633815
218 1 0.413558 0.661943 0.0409043
606 1 0.566709 0.669856 0.0537874
925 1 0.575305 0.650311 0.0533637
1043 2 0.767006 0.066585 0.0949274
1112 2 0.411211 0.228779 0.0920083
1105 2 0.693236 0.220806 0.0781683
1145 2 0.103664 0.284113 0.0921889
404 1 0.370877 0.33464 0.0850878
94 1 0.62009 0.351746 0.0987916
434 1 0.416842 0.358112 0.0879277
674 1 0.437639 0.399107 0.0845426
743 1 0.463463 0.414249 0.0745336
217 1 0.585078 0.409758 0.0946824
543 1 0.625568 0.417581 0.0842234
289 1 0.643864 0.419069 0.0982292
246 1 0.680009 0.403272 0.0777914
628 1 0.37725 0.443136 0.0873074
769 1 0.503953 0.439448 0.0918539
278 1 0.551613 0.463782 0.0832369
53 1 0.59469 0.458725 0.0924304
242 1 0.741534 0.456761 0.0740395
78 1 0.334204 0.470893 0.106627
843 1 0.657047 0.497311 0.0974561
377 1 0.304338 0.509686 0.0952005
707 1 0.516779 0.512066 0.0745507
38 1 0.585739 0.50805 0.0986933
505 1 0.604124 0.507008 0.0727012
784 1 0.402425 0.557582 0.0738998
146 1 0.634799 0.558416 0.0885529
547 1 0.670706 0.559129 0.0720701
236 1 0.689626 0.54479 0.0757668
482 1 0.443214 0.598458 0.0727192
722 1 0.481204 0.600155 0.0969839
811 1 0.540523 0.571982 0.0951509
957 1 0.67035 0.572606 0.0914839
350 1 0.316037 0.641387 0.0896281
338 1 0.369615 0.624252 0.098896
481 1 0.57801 0.612203 0.0916515
863 1 0.630726 0.611162 0.101825
191 1 0.385415 0.669411 0.0975175
510 1 0.484034 0.651175 0.0826899
187 1 0.52488 0.657065 0.0892922
956 1 0.493321 0.74917 0.0984614
1076 2 0.999277 0.855541 0.0787779
1055 2 0.598864 0.103595 0.118321
1148 2 0.646104 0.0718825 0.129974
1120 2 0.396274 0.181479 0.124121
1122 2 0.619634 0.187549 0.138645
330 1 0.38209 0.293408 0.122098
858 1 0.36228 0.339609 0.107251
522 1 0.442991 0.344161 0.113388
186 1 0.56529 0.331726 0.12748
283 1 0.362967 0.380842 0.136577
300 1 0.690894 0.360642 0.136887
84 1 0.278808 0.427728 0.138597
415 1 0.434932 0.407854 0.11823
634 1 0.60626 0.41547 0.121132
39 1 0.619171 0.402619 0.120412
686 1 0.386949 0.450931 0.1094
553 1 0.662489 0.455334 0.107482
357 1 0.696521 0.434242 0.11385
745 1 0.728234 0.431773 0.129816
854 1 0.507586 0.492105 0.118764
960 1 0.653803 0.47134 0.132795
216 1 0.581635 0.5331 0.109697
359 1 0.264774 0.558982 0.132379
276 1 0.291044 0.572964 0.117326
179 1 0.464785 0.645583 0.138114
321 1 0.522797 0.65314 0.132128
447 1 0.412845 0.688095 0.114485
455 1 0.465413 0.70413 0.135006
667 1 0.49308 0.697169 0.138822
160 1 0.487935 0.729982 0.108415
1009 2 0.114819 0.768319 0.130701
1147 2 0.0241468 0.835908 0.111897
1063 2 0.199792 0.908974 0.133144
1010 2 0.713271 0.947588 0.111727
1136 2 0.170896 0.253476 0.164457
495 1 0.336101 0.345441 0.163076
548 1 0.391464 0.338718 0.178041
953 1 0.425943 0.328871 0.154153
106 1 0.488627 0.353533 0.166653
356 1 0.468248 0.340027 0.175337
371 1 0.319769 0.361625 0.155728
233 1 0.441773 0.374656 0.176625
777 1 0.517486 0.386941 0.147232
623 1 0.304778 0.40494 0.153367
763 1 0.416519 0.427371 0.156316
701 1 0.573863 0.414757 0.149292
1064 2 0.743345 0.397344 0.16574
998 1 0.313082 0.463309 0.160723
525 1 0.376656 0.461941 0.175678
676 1 0.399562 0.430197 0.150454
448 1 0.327005 0.473037 0.167617
514 1 0.33599 0.482617 0.177483
665 1 0.422145 0.488417 0.160055
260 1 0.585261 0.477737 0.167502
872 1 0.577259 0.49169 0.151128
588 1 0.615308 0.477618 0.165254
367 1 0.358423 0.516293 0.161518
231 1 0.621439 0.524891 0.173267
739 1 0.334923 0.545596 0.15646
349 1 0.546233 0.541371 0.154229
112 1 0.629712 0.56886 0.143758
582 1 0.712177 0.560471 0.160269
130 1 0.28908 0.571716 0.174765
614 1 0.645866 0.572281 0.15706
467 1 0.678979 0.600633 0.173755
883 1 0.416024 0.622588 0.164665
1107 2 0.177643 0.650452 0.146802
934 1 0.375686 0.654331 0.174259
21 1 0.657414 0.657544 0.171996
196 1 0.347099 0.690982 0.178017
372 1 0.41225 0.686817 0.150927
389 1 0.398862 0.67935 0.167968
425 1 0.417428 0.708028 0.169841
750 1 0.523872 0.722665 0.154196
479 1 0.564214 0.737986 0.149579
1149 2 0.469492 0.751125 0.161324
1014 2 0.889443 0.87173 0.163718
1006 2 0.465402 0.00935346 0.203685
1129 2 0.333376 0.0579038 0.189451
1078 2 0.148044 0.175414 0.179706
1079 2 0.916473 0.157685 0.211499
969 1 0.395744 0.276959 0.209411
838 1 0.428647 0.266755 0.208111
184 1 0.656828 0.314503 0.201976
117 1 0.419429 0.351422 0.200361
881 1 0.393845 0.350886 0.194906
126 1 0.43475 0.349458 0.181454
820 1 0.508677 0.335506 0.207548
436 1 0.372694 0.369509 0.179765
508 1 0.596619 0.383373 0.204985
664 1 0.615658 0.362191 0.191845
141 1 0.672331 0.361031 0.197704
783 1 0.279373 0.422612 0.191605
16 1 0.429399 0.400687 0.19171
647 1 0.254564 0.461763 0.191464
67 1 0.309303 0.451857 0.206163
309 1 0.368979 0.437071 0.191832
919 1 0.52573 0.447483 0.202452
23 1 0.651035 0.447007 0.190413
904 1 0.736862 0.435851 0.200824
310 1 0.309246 0.490054 0.190904
28 1 0.352115 0.489549 0.202377
524 1 0.332152 0.47396 0.185295
819 1 0.448237 0.521053 0.187274
469 1 0.72476 0.53328 0.186168
31 1 0.277506 0.551695 0.180029
470 1 0.395077 0.563001 0.211458
100 1 0.520888 0.562732 0.18821
325 1 0.733864 0.555325 0.186645
459 1 0.36646 0.588853 0.193116
422 1 0.447409 0.597391 0.190233
20 1 0.590978 0.571688 0.205915
703 1 0.303631 0.622261 0.180833
642 1 0.346263 0.638861 0.190004
724 1 0.550076 0.62839 0.190625
520 1 0.648041 0.622916 0.214214
749 1 0.656311 0.619375 0.18442
500 1 0.402669 0.662274 0.189857
698 1 0.578371 0.675037 0.190644
682 1 0.632543 0.655075 0.180331
402 1 0.528332 0.679619 0.197633
599 1 0.465326 0.734506 0.197905
742 1 0.596759 0.728705 0.194468
1141 2 0.827198 0.715011 0.18544
1051 2 0.915926 0.962765 0.19957
1059 2 0.372106 0.984721 0.199427
1150 2 0.366873 0.0374379 0.218112
1101 2 0.917064 0.0871797 0.228685
861 1 0.454112 0.26268 0.219296
860 1 0.542142 0.278715 0.221777
512 1 0.394943 0.310814 0.215946
185 1 0.559252 0.353832 0.217863
1069 2 0.0567249 0.375988 0.232073
171 1 0.365614 0.377156 0.225641
685 1 0.531766 0.389771 0.249734
1037 2 0.826165 0.361649 0.237017
137 1 0.326763 0.409614 0.249174
169 1 0.582462 0.430884 0.247345
627 1 0.635001 0.463282 0.249554
190 1 0.699259 0.448198 0.240214
765 1 0.293241 0.496303 0.228037
101 1 0.374397 0.495648 0.219058
802 1 0.589932 0.482381 0.238133
431 1 0.322188 0.518318 0.235528
705 1 0.426549 0.510523 0.220519
408 1 0.272359 0.54423 0.231169
324 1 0.56813 0.552797 0.219307
446 1 0.654045 0.53593 0.249499
1085 2 0.241424 0.605357 0.240741
426 1 0.506757 0.571956 0.242656
98 1 0.622037 0.572462 0.228859
856 1 0.689987 0.613486 0.218366
619 1 0.356557 0.651179 0.220481
159 1 0.657622 0.647787 0.224459
1038 2 0.543392 0.788554 0.231048
1126 2 0.667704 0.10771 0.276776
1045 2 0.91874 0.255981 0.271912
262 1 0.398303 0.286302 0.254358
379 1 0.407972 0.291538 0.272932
308 1 0.56169 0.320336 0.275888
458 1 0.299956 0.358742 0.262405
712 1 0.311471 0.385398 0.258083
704 1 0.672926 0.360051 0.263959
557 1 0.280384 0.410447 0.275199
423 1 0.370317 0.41598 0.256655
533 1 0.506808 0.419282 0.25146
1046 2 0.0284086 0.46399 0.285038
650 1 0.30118 0.437816 0.257235
756 1 0.297848 0.438888 0.285276
929 1 0.327359 0.429933 0.275609
411 1 0.437493 0.445165 0.263749
417 1 0.523887 0.462746 0.260574
559 1 0.277323 0.46465 0.255105
259 1 0.560479 0.470868 0.260777
257 1 0.690931 0.485089 0.27943
571 1 0.505149 0.534621 0.255341
602 1 0.732703 0.534384 0.272804
390 1 0.265933 0.537865 0.278073
586 1 0.32338 0.549139 0.260088
219 1 0.489025 0.550597 0.252659
492 1 0.59526 0.53599 0.278955
27 1 0.68457 0.570589 0.263057
832 1 0.522526 0.595876 0.276359
50 1 0.358459 0.615272 0.256135
755 1 0.483586 0.626547 0.25371
638 1 0.614126 0.621043 0.255323
552 1 0.367297 0.654126 0.279635
370 1 0.488645 0.648979 0.269658
395 1 0.614694 0.653976 0.250246
87 1 0.658753 0.658915 0.263723
115 1 0.565936 0.685601 0.281243
986 1 0.432422 0.721181 0.262485
585 1 0.488412 0.747718 0.277155
1130 2 0.111132 0.801647 0.279351
1018 2 0.0832297 0.842165 0.268724
1061 2 0.523285 0.848591 0.261874
1042 2 0.507939 0.934567 0.274812
1066 2 0.0527904 0.247652 0.293416
593 1 0.46747 0.274076 0.28839
188 1 0.616606 0.301684 0.301995
609 1 0.439332 0.346398 0.320766
224 1 0.539051 0.331463 0.291822
110 1 0.330658 0.376355 0.295722
891 1 0.355111 0.358684 0.310054
92 1 0.533044 0.378378 0.309587
385 1 0.668791 0.378437 0.288304
849 1 0.707495 0.376772 0.315066
48 1 0.272709 0.42089 0.288353
375 1 0.327358 0.409823 0.302916
178 1 0.63235 0.404944 0.286548
1139 2 0.143478 0.433707 0.320396
60 1 0.38906 0.436836 0.312854
897 1 0.643597 0.432552 0.314132
504 1 0.314421 0.47325 0.320206
684 1 0.312874 0.473042 0.319034
123 1 0.39525 0.470274 0.290395
968 1 0.504015 0.47319 0.29781
365 1 0.731659 0.495799 0.297832
990 1 0.737042 0.472267 0.289844
335 1 0.344738 0.509157 0.318151
306 1 0.475309 0.522663 0.308144
176 1 0.590201 0.503326 0.29169
617 1 0.484594 0.571482 0.288532
751 1 0.533443 0.574933 0.29568
1052 2 0.165027 0.612203 0.291735
767 1 0.328382 0.618695 0.298473
840 1 0.46883 0.622711 0.306512
362 1 0.614992 0.668793 0.293431
468 1 0.400976 0.698215 0.314211
880 1 0.480854 0.707349 0.314886
718 1 0.590155 0.732843 0.290432
1080 2 0.656283 0.140795 0.33935
1056 2 0.989894 0.150671 0.324151
258 1 0.43778 0.275655 0.350962
660 1 0.621755 0.332327 0.349174
304 1 0.651474 0.330185 0.322965
781 1 0.680332 0.347678 0.339359
950 1 0.30549 0.364873 0.331412
229 1 0.322269 0.381354 0.346356
409 1 0.376949 0.388167 0.334878
49 1 0.423477 0.3699 0.328566
987 1 0.5406 0.35931 0.344392
890 1 0.462569 0.400334 0.334337
121 1 0.584542 0.401971 0.339391
518 1 0.580972 0.396348 0.352304
501 1 0.712079 0.420028 0.335639
608 1 0.262864 0.451236 0.344522
896 1 0.340153 0.458673 0.347283
717 1 0.425206 0.431542 0.339839
230 1 0.353483 0.493213 0.353052
546 1 0.387575 0.470483 0.332233
502 1 0.62709 0.497913 0.343804
152 1 0.314542 0.501066 0.33356
206 1 0.382401 0.516477 0.343293
800 1 0.262038 0.570888 0.339257
847 1 0.688555 0.55048 0.341525
535 1 0.486529 0.596057 0.350044
816 1 0.643576 0.582193 0.341346
801 1 0.30738 0.638836 0.340553
941 1 0.548113 0.627561 0.322607
561 1 0.623645 0.608819 0.331727
683 1 0.660476 0.625509 0.353659
978 1 0.671127 0.635862 0.348895
8 1 0.683651 0.617149 0.330035
387 1 0.68255 0.619975 0.332328
988 1 0.347843 0.69185 0.350667
490 1 0.578787 0.681437 0.338803
1011 2 0.788642 0.704667 0.337603
1013 2 0.048181 0.777256 0.345266
1102 2 0.507474 0.112119 0.387101
1026 2 0.399247 0.151329 0.383084
478 1 0.453163 0.313913 0.364588
607 1 0.48892 0.286157 0.390137
841 1 0.525276 0.317067 0.380907
1140 2 0.901844 0.297695 0.358055
1118 2 0.155137 0.380816 0.378437
24 1 0.381471 0.389804 0.363927
263 1 0.710411 0.37954 0.373258
486 1 0.312602 0.397687 0.36407
442 1 0.370436 0.425236 0.386279
853 1 0.363385 0.417234 0.390344
780 1 0.455876 0.404768 0.362222
626 1 0.658797 0.408963 0.374652
51 1 0.291245 0.458734 0.373921
610 1 0.306864 0.459299 0.369545
878 1 0.294398 0.450939 0.365596
888 1 0.301537 0.431453 0.37352
25 1 0.509785 0.448976 0.376781
79 1 0.292734 0.487056 0.386955
454 1 0.310523 0.467807 0.364933
292 1 0.534299 0.466558 0.370655
757 1 0.570564 0.476256 0.361662
723 1 0.254152 0.527842 0.386217
328 1 0.297228 0.519185 0.380645
199 1 0.322994 0.566784 0.389442
772 1 0.61338 0.569997 0.373616
277 1 0.702479 0.568747 0.363872
532 1 0.265013 0.577792 0.3885
551 1 0.700606 0.58749 0.381284
844 1 0.722086 0.594511 0.382475
981 1 0.645215 0.631459 0.365182
695 1 0.413141 0.657252 0.374759
210 1 0.680023 0.651689 0.359658
17 1 0.356738 0.688162 0.382481
985 1 0.511347 0.708957 0.382481
649 1 0.601428 0.699973 0.379304
460 1 0.601429 0.720321 0.375802
1135 2 0.0976396 0.0281679 0.417515
1017 2 0.418351 0.224277 0.425066
430 1 0.334671 0.315878 0.408172
288 1 0.365461 0.298266 0.403272
491 1 0.381734 0.307132 0.428392
497 1 0.362874 0.317216 0.398729
128 1 0.434094 0.320578 0.394729
906 1 0.580553 0.350565 0.407845
804 1 0.654092 0.323642 0.411639
249 1 0.537001 0.379214 0.400492
391 1 0.537179 0.363506 0.406175
56 1 0.625268 0.376417 0.39711
815 1 0.677895 0.389478 0.404521
1131 2 0.0541097 0.421932 0.414731
344 1 0.280056 0.40111 0.407112
302 1 0.3544 0.398552 0.423583
893 1 0.264442 0.469147 0.400452
403 1 0.561699 0.480303 0.40913
66 1 0.445589 0.510946 0.427508
220 1 0.471085 0.530282 0.407083
113 1 0.322845 0.559407 0.420152
261 1 0.355687 0.536232 0.415475
255 1 0.498367 0.557116 0.396704
915 1 0.563043 0.568034 0.408303
977 1 0.599129 0.567707 0.401133
318 1 0.626291 0.568094 0.415626
440 1 0.274087 0.584873 0.410671
295 1 0.343731 0.580232 0.40442
499 1 0.649496 0.572111 0.42383
1024 2 0.231785 0.610306 0.416787
266 1 0.297563 0.63979 0.3942
887 1 0.312614 0.607422 0.394901
823 1 0.460679 0.6292 0.427016
752 1 0.50081 0.610903 0.405093
419 1 0.546119 0.617568 0.415285
966 1 0.389404 0.713272 0.424208
734 1 0.45634 0.704703 0.400749
807 1 0.484214 0.692744 0.406978
401 1 0.501321 0.70277 0.403496
125 1 0.599464 0.698932 0.408245
862 1 0.602113 0.713747 0.407971
432 1 0.508372 0.715562 0.401684
42 1 0.475472 0.265364 0.433862
930 1 0.332202 0.317693 0.44241
690 1 0.534826 0.317575 0.459078
316 1 0.63749 0.291484 0.454679
157 1 0.378791 0.332598 0.437538
99 1 0.466344 0.350983 0.454746
445 1 0.593731 0.344438 0.45236
727 1 0.574185 0.332925 0.449991
464 1 0.30784 0.372224 0.447456
639 1 0.360496 0.362317 0.437392
706 1 0.377424 0.359641 0.463886
327 1 0.589033 0.381565 0.438275
496 1 0.655702 0.383142 0.428986
290 1 0.719009 0.387426 0.452729
256 1 0.450613 0.459153 0.456886
754 1 0.477356 0.430177 0.459479
44 1 0.369935 0.491044 0.439974
866 1 0.277861 0.512583 0.456565
265 1 0.337211 0.511958 0.458565
874 1 0.475309 0.525434 0.436898
994 1 0.348965 0.55331 0.464148
630 1 0.376871 0.568809 0.448841
225 1 0.574229 0.564793 0.436356
675 1 0.617961 0.567649 0.452805
922 1 0.705186 0.560211 0.433225
279 1 0.731126 0.542272 0.445511
70 1 0.270457 0.576395 0.445389
484 1 0.342869 0.593649 0.433478
416 1 0.298961 0.63167 0.462399
542 1 0.423908 0.621466 0.45069
142 1 0.655478 0.620752 0.449509
672 1 0.459431 0.655916 0.446946
485 1 0.48472 0.682363 0.454514
870 1 0.400233 0.719312 0.463166
1108 2 0.299396 0.941301 0.453996
1081 2 0.447321 0.13176 0.493722
1106 2 0.774274 0.223507 0.482012
621 1 0.344934 0.308532 0.483459
297 1 0.447182 0.290355 0.496131
95 1 0.444954 0.349259 0.489133
513 1 0.451708 0.350091 0.466721
30 1 0.572341 0.338222 0.481366
40 1 0.628627 0.327244 0.484381
721 1 0.566812 0.416522 0.471676
796 1 0.714547 0.393407 0.483362
1137 2 0.0260274 0.442701 0.469313
10 1 0.261585 0.452579 0.495629
603 1 0.257777 0.454542 0.474802
668 1 0.337653 0.429255 0.469092
813 1 0.362793 0.461325 0.475902
818 1 0.421041 0.441898 0.470839
740 1 0.562739 0.45954 0.482007
140 1 0.619889 0.475486 0.479022
728 1 0.745937 0.470399 0.48673
1031 2 0.201137 0.511779 0.47451
54 1 0.488904 0.503332 0.496498
363 1 0.339862 0.56173 0.485352
961 1 0.358902 0.563307 0.495988
428 1 0.479357 0.556434 0.486025
598 1 0.546798 0.538972 0.494462
963 1 0.263943 0.581959 0.486058
709 1 0.428993 0.579282 0.492485
859 1 0.530974 0.583655 0.494115
736 1 0.70861 0.600969 0.477552
120 1 0.344329 0.636877 0.496143
871 1 0.462285 0.616083 0.497629
857 1 0.494177 0.635747 0.489689
918 1 0.332878 0.678169 0.478226
829 1 0.393388 0.668233 0.475427
903 1 0.499683 0.676384 0.481107
1124 2 0.851708 0.653804 0.491464
114 1 0.494686 0.682424 0.489715
11 1 0.541541 0.680221 0.464948
1025 2 0.945184 0.706937 0.48976
1027 2 0.497997 0.83587 0.47537
1040 2 0.586592 0.848485 0.481046
1099 2 0.0937724 0.0335287 0.516697
1002 2 0.000549172 0.229935 0.511993
632 1 0.397232 0.272536 0.514234
786 1 0.377152 0.295146 0.526284
952 1 0.487018 0.316178 0.521649
572 1 0.504361 0.289939 0.511458
775 1 0.56279 0.315851 0.501573
733 1 0.353919 0.323586 0.514691
678 1 0.374626 0.336795 0.528059
143 1 0.697736 0.352175 0.514103
443 1 0.347824 0.376659 0.507984
999 1 0.389205 0.362349 0.511616
303 1 0.325989 0.399417 0.512632
636 1 0.43526 0.417595 0.534709
150 1 0.615244 0.40037 0.522169
670 1 0.683578 0.401232 0.51389
923 1 0.357943 0.446124 0.517954
364 1 0.40471 0.462308 0.524303
901 1 0.401257 0.43122 0.532046
12 1 0.439396 0.429732 0.505111
729 1 0.481969 0.44541 0.515756
965 1 0.537095 0.458114 0.530328
477 1 0.614563 0.462248 0.51356
398 1 0.516509 0.47159 0.515893
280 1 0.598648 0.472334 0.522676
405 1 0.285268 0.505504 0.502593
618 1 0.425775 0.508717 0.500994
355 1 0.442882 0.515768 0.528794
268 1 0.58193 0.500923 0.515584
633 1 0.612575 0.550813 0.51697
59 1 0.34034 0.590082 0.516111
285 1 0.395852 0.592462 0.508531
908 1 0.40713 0.627031 0.519644
420 1 0.593986 0.623134 0.527604
317 1 0.645039 0.663504 0.529765
435 1 0.650482 0.655173 0.501693
797 1 0.681422 0.660826 0.509504
1021 2 0.731818 0.670764 0.535103
1097 2 0.898298 0.693374 0.530367
916 1 0.424896 0.732285 0.526085
879 1 0.534403 0.719195 0.515208
392 1 0.541157 0.731035 0.508594
1094 2 0.594751 0.98694 0.50063
1034 2 0.548581 0.00675591 0.546632
1008 2 0.0741451 0.15705 0.536033
1016 2 0.7356 0.226784 0.554318
1033 2 0.810331 0.241302 0.565273
651 1 0.425524 0.283514 0.547314
584 1 0.45786 0.261172 0.542897
928 1 0.470207 0.264921 0.552577
612 1 0.533544 0.273161 0.538828
526 1 0.557908 0.267658 0.57073
938 1 0.454859 0.312877 0.557304
836 1 0.598637 0.292945 0.567392
826 1 0.337171 0.328853 0.564577
595 1 0.359751 0.332453 0.569732
949 1 0.541908 0.346524 0.554597
725 1 0.670188 0.351284 0.556702
789 1 0.31742 0.377701 0.556422
910 1 0.464502 0.388708 0.539772
462 1 0.582844 0.360982 0.562368
550 1 0.626667 0.392517 0.552681
900 1 0.643593 0.371424 0.562343
877 1 0.54929 0.417001 0.570244
383 1 0.615751 0.426788 0.551065
360 1 0.696282 0.41114 0.560776
135 1 0.307636 0.439759 0.550435
441 1 0.319566 0.447434 0.540178
944 1 0.52344 0.457192 0.546773
855 1 0.671651 0.437052 0.566662
637 1 0.67897 0.448594 0.536072
134 1 0.274111 0.477897 0.53996
889 1 0.626999 0.479445 0.55203
286 1 0.691943 0.488608 0.566478
347 1 0.374994 0.52282 0.56816
744 1 0.59288 0.534838 0.540962
342 1 0.380082 0.539866 0.565917
320 1 0.510952 0.571014 0.569379
245 1 0.537012 0.558133 0.571242
677 1 0.587706 0.56789 0.556557
240 1 0.337008 0.599305 0.537365
997 1 0.351793 0.583508 0.537284
993 1 0.387433 0.588923 0.565907
172 1 0.420396 0.59999 0.559632
284 1 0.475402 0.587198 0.562759
605 1 0.577026 0.57375 0.544573
313 1 0.672374 0.597312 0.558694
254 1 0.35596 0.62016 0.569733
659 1 0.346976 0.625545 0.560368
534 1 0.396271 0.619446 0.545456
805 1 0.455116 0.635898 0.561075
570 1 0.60083 0.642204 0.536236
1114 2 0.0628712 0.676001 0.551641
207 1 0.610649 0.678558 0.563861
1128 2 0.296174 0.801782 0.544568
1096 2 0.799797 0.195548 0.577848
1071 2 0.344156 0.236544 0.599737
1041 2 0.94105 0.223632 0.589771
449 1 0.38911 0.27715 0.605942
227 1 0.446558 0.294493 0.603067
144 1 0.513256 0.292708 0.580622
921 1 0.548153 0.309695 0.595223
687 1 0.589656 0.349084 0.60314
156 1 0.620834 0.352356 0.589948
214 1 0.581804 0.373657 0.600883
578 1 0.594119 0.357175 0.582393
251 1 0.645229 0.368093 0.586769
96 1 0.568122 0.429943 0.590448
710 1 0.672128 0.453504 0.591007
239 1 0.710831 0.43619 0.598154
806 1 0.74067 0.443092 0.598528
153 1 0.320907 0.485515 0.587895
232 1 0.502111 0.475995 0.584006
556 1 0.520497 0.495391 0.579881
592 1 0.60195 0.479684 0.586151
463 1 0.613524 0.49911 0.587143
174 1 0.670675 0.53362 0.599425
536 1 0.344383 0.55016 0.574366
549 1 0.41471 0.537219 0.59212
145 1 0.503455 0.564618 0.573795
648 1 0.714586 0.541325 0.589558
433 1 0.375265 0.577708 0.580492
833 1 0.363574 0.585622 0.59127
271 1 0.439464 0.572413 0.591551
629 1 0.437858 0.581754 0.586973
912 1 0.573814 0.598385 0.604392
107 1 0.624478 0.605881 0.583061
625 1 0.414746 0.631346 0.57988
620 1 0.561798 0.637952 0.605414
1143 2 0.109102 0.67053 0.592209
1007 2 0.76353 0.64673 0.590711
1060 2 0.76252 0.66815 0.592348
183 1 0.455805 0.70938 0.593313
939 1 0.551271 0.704322 0.582808
253 1 0.600299 0.726486 0.602024
1048 2 0.929662 0.820944 0.606105
1005 2 0.0646665 0.850513 0.573063
1023 2 0.432564 0.0961882 0.634392
1065 2 0.596722 0.106718 0.611713
1133 2 0.0365449 0.209891 0.632244
205 1 0.401546 0.277508 0.63731
381 1 0.476455 0.281464 0.637095
653 1 0.613273 0.278607 0.610346
947 1 0.378134 0.293007 0.631887
895 1 0.448081 0.391002 0.639863
507 1 0.282378 0.423399 0.625089
9 1 0.345596 0.424707 0.615162
353 1 0.368443 0.423191 0.632204
726 1 0.497436 0.401086 0.620851
386 1 0.515108 0.425422 0.623958
576 1 0.570472 0.414652 0.62885
995 1 0.358062 0.456331 0.611261
105 1 0.425326 0.449489 0.614891
200 1 0.427587 0.447764 0.629854
932 1 0.281429 0.483076 0.628928
846 1 0.458796 0.484951 0.632476
471 1 0.50208 0.46478 0.6189
341 1 0.660914 0.483939 0.64124
400 1 0.676325 0.487331 0.630977
528 1 0.363928 0.530438 0.64211
594 1 0.4455 0.523149 0.628918
388 1 0.465552 0.536893 0.625114
166 1 0.539272 0.539452 0.632968
170 1 0.591839 0.546264 0.618923
511 1 0.634649 0.5443 0.611191
287 1 0.649347 0.571046 0.624991
177 1 0.468887 0.58836 0.623417
33 1 0.694002 0.586247 0.612788
842 1 0.699832 0.575122 0.641269
465 1 0.443096 0.621412 0.630629
418 1 0.482307 0.62638 0.63123
544 1 0.521427 0.627421 0.634479
681 1 0.58396 0.613022 0.616217
1138 2 0.739789 0.629655 0.618263
875 1 0.557873 0.664875 0.621382
1012 2 0.0957758 0.703375 0.629681
421 1 0.472702 0.709678 0.610721
80 1 0.52762 0.703728 0.608489
770 1 0.644565 0.703609 0.621071
1123 2 0.209542 0.771382 0.610273
1088 2 0.349071 0.840342 0.630045
1086 2 0.134882 0.95922 0.618172
1036 2 0.91051 0.946012 0.623896
1019 2 0.437447 0.169671 0.664176
1092 2 0.152629 0.229111 0.661401
474 1 0.460332 0.295209 0.657874
693 1 0.43326 0.306841 0.66088
72 1 0.304418 0.356076 0.644278
1083 2 0.195417 0.37399 0.646384
1144 2 0.264199 0.391959 0.64892
562 1 0.419579 0.363366 0.67425
793 1 0.502105 0.372201 0.675713
116 1 0.660818 0.374967 0.643502
119 1 0.29859 0.407335 0.667352
180 1 0.391737 0.422775 0.673045
692 1 0.375702 0.420901 0.659925
688 1 0.407235 0.393353 0.651843
332 1 0.554229 0.427535 0.668561
696 1 0.5362 0.408049 0.644045
917 1 0.720796 0.420633 0.666042
182 1 0.351785 0.443154 0.671436
58 1 0.397718 0.449104 0.670257
1104 2 0.957841 0.433429 0.646379
573 1 0.368119 0.482244 0.650041
378 1 0.595197 0.467816 0.672001
656 1 0.605521 0.485815 0.673151
799 1 0.729279 0.484386 0.667759
1003 2 0.0694668 0.529282 0.648235
1000 1 0.617899 0.524429 0.662326
407 1 0.580058 0.541297 0.673889
311 1 0.514017 0.59077 0.653668
597 1 0.706377 0.577829 0.649289
41 1 0.331743 0.608442 0.660585
451 1 0.412216 0.609305 0.672615
773 1 0.428161 0.608203 0.652065
71 1 0.576344 0.611833 0.654674
825 1 0.301222 0.643665 0.648847
192 1 0.340641 0.654197 0.672352
689 1 0.5106 0.659879 0.664281
1089 2 0.172886 0.698737 0.669072
622 1 0.49781 0.696352 0.669846
790 1 0.640251 0.692365 0.642921
646 1 0.41725 0.725834 0.668413
452 1 0.569271 0.740143 0.668247
1028 2 0.546257 0.935423 0.656094
1146 2 0.654189 0.949048 0.651159
1111 2 0.322367 0.0189615 0.685929
1090 2 0.0991329 0.127013 0.711041
1030 2 0.620586 0.181455 0.710192
63 1 0.436055 0.275575 0.692172
88 1 0.443343 0.269239 0.687625
274 1 0.413774 0.300089 0.695608
102 1 0.383342 0.331683 0.681754
194 1 0.609855 0.334748 0.704729
824 1 0.683069 0.336116 0.707806
336 1 0.328724 0.372262 0.702993
57 1 0.365466 0.381871 0.708115
138 1 0.46471 0.387999 0.707601
560 1 0.523049 0.380799 0.69154
282 1 0.581565 0.362623 0.710347
661 1 0.535693 0.394782 0.713655
450 1 0.543668 0.424948 0.709248
444 1 0.590375 0.425305 0.689635
238 1 0.428272 0.464098 0.684234
93 1 0.55899 0.4378 0.692406
453 1 0.705923 0.453685 0.682818
111 1 0.351639 0.489564 0.689044
437 1 0.407209 0.465258 0.680895
4 1 0.283602 0.500125 0.697247
821 1 0.351521 0.505747 0.68658
516 1 0.359077 0.500273 0.683661
32 1 0.619743 0.52681 0.708091
466 1 0.740407 0.51973 0.702794
702 1 0.326 0.589344 0.699179
456 1 0.393621 0.592824 0.696223
662 1 0.446783 0.579705 0.710924
530 1 0.541863 0.598268 0.687975
397 1 0.619003 0.576998 0.708963
792 1 0.613203 0.600649 0.710746
774 1 0.37616 0.625132 0.678768
521 1 0.400793 0.624002 0.701695
85 1 0.448183 0.616059 0.706086
746 1 0.658869 0.611567 0.699242
132 1 0.543562 0.653751 0.680965
766 1 0.558795 0.664937 0.695612
493 1 0.444767 0.696144 0.680194
3 1 0.490701 0.705843 0.692216
77 1 0.583846 0.696442 0.69603
839 1 0.610651 0.703255 0.698842
252 1 0.659319 0.680437 0.694455
489 1 0.489839 0.728304 0.705102
868 1 0.597115 0.718308 0.695294
1082 2 0.983939 0.0584126 0.74012
1073 2 0.608861 0.135226 0.748261
13 1 0.451167 0.26921 0.717085
148 1 0.634367 0.297948 0.717961
845 1 0.375845 0.33451 0.720736
250 1 0.344195 0.385352 0.730516
920 1 0.360498 0.385769 0.743357
730 1 0.401759 0.357715 0.743522
831 1 0.477235 0.386661 0.71652
164 1 0.520996 0.386006 0.721378
913 1 0.561425 0.374821 0.744735
158 1 0.598165 0.357179 0.720701
89 1 0.704669 0.375297 0.729296
886 1 0.282614 0.394307 0.727145
931 1 0.541823 0.427388 0.718038
788 1 0.359965 0.431017 0.719708
413 1 0.545454 0.442412 0.746039
848 1 0.656658 0.452944 0.747481
794 1 0.684534 0.456007 0.727278
473 1 0.716691 0.430899 0.727282
331 1 0.314629 0.470584 0.719141
640 1 0.376805 0.464575 0.721169
237 1 0.456237 0.480848 0.716627
708 1 0.567232 0.468472 0.719689
139 1 0.572737 0.497002 0.733191
487 1 0.613374 0.473768 0.727867
611 1 0.720354 0.482276 0.719139
580 1 0.456626 0.506611 0.735958
671 1 0.517969 0.502565 0.733742
971 1 0.639496 0.513811 0.733924
643 1 0.448388 0.549808 0.747501
958 1 0.535227 0.555758 0.744161
221 1 0.673503 0.565872 0.729899
314 1 0.737374 0.549213 0.736297
64 1 0.420247 0.595235 0.72066
346 1 0.443424 0.618767 0.730008
615 1 0.603328 0.635069 0.719948
339 1 0.44652 0.660773 0.715966
982 1 0.5546 0.664373 0.726841
892 1 0.576674 0.65997 0.71993
527 1 0.37673 0.705457 0.727843
488 1 0.663485 0.688053 0.716516
108 1 0.502453 0.733154 0.740215
291 1 0.528752 0.738092 0.719139
1053 2 0.181835 0.105776 0.777003
1062 2 0.312439 0.169855 0.758089
1049 2 0.799974 0.164262 0.754722
517 1 0.39741 0.2765 0.760377
351 1 0.439773 0.270312 0.761693
803 1 0.398692 0.317078 0.773595
202 1 0.440728 0.313211 0.757895
738 1 0.445696 0.318238 0.760348
691 1 0.60819 0.351588 0.770944
962 1 0.329527 0.365392 0.781045
247 1 0.470154 0.372324 0.783101
782 1 0.556933 0.377946 0.774978
577 1 0.592929 0.36194 0.762478
809 1 0.640083 0.376042 0.765256
503 1 0.404915 0.41061 0.754753
322 1 0.587756 0.421023 0.767439
911 1 0.721301 0.413942 0.753713
1072 2 0.775118 0.407494 0.756211
52 1 0.498717 0.431644 0.765793
189 1 0.567737 0.463773 0.760094
147 1 0.404027 0.473918 0.781268
927 1 0.534331 0.497718 0.783866
461 1 0.596179 0.485044 0.758117
361 1 0.499318 0.532763 0.784478
758 1 0.47915 0.571407 0.773434
955 1 0.511813 0.546655 0.760664
1091 2 0.159255 0.598071 0.782856
305 1 0.285481 0.582057 0.752511
65 1 0.312256 0.582503 0.765538
759 1 0.302439 0.589941 0.777299
340 1 0.368513 0.597854 0.776987
899 1 0.479687 0.601186 0.771095
907 1 0.576342 0.577268 0.781392
834 1 0.488196 0.618262 0.767879
212 1 0.523896 0.625551 0.758712
926 1 0.691594 0.62564 0.760015
992 1 0.368397 0.655479 0.7597
537 1 0.436405 0.661815 0.753862
933 1 0.444706 0.675143 0.761277
228 1 0.620464 0.645662 0.76725
531 1 0.647451 0.70171 0.776877
1103 2 0.00307719 0.718378 0.773901
1095 2 0.0938243 0.905026 0.775558
1070 2 0.996008 0.900028 0.776483
1113 2 0.384244 0.996238 0.767437
1057 2 0.999528 0.0694226 0.786208
894 1 0.451405 0.268766 0.807288