ITEM: TIMESTEP
0
ITEM: NUMBER OF ATOMS
1540
ITEM: BOX BOUNDS pp pp pp
-2.0000000000000000e+01 2.0000000000000000e+01
-2.0000000000000000e+01 2.0000000000000000e+01
-2.0000000000000000e+01 2.0000000000000000e+01
ITEM: ATOMS id type xs ys zs
1363 1 0.0133345 0.00410547 0.00300591
1212 1 0.611893 0.00692356 0.00368625
1001 1 0.525809 0.0613603 0.0162434
1508 2 0.626887 0.0490351 0.0227691
23 1 0.0730318 0.0848485 0.0308821
436 1 0.503175 0.0778694 0.0178573
497 1 0.368246 0.110193 0.00904333
412 1 0.424771 0.128817 0.0292212
100 1 0.169225 0.169692 0.0162222
1015 1 0.568404 0.165051 0.00492214
279 1 0.812471 0.204439 0.0124769
111 1 0.16959 0.238393 0.0146882
697 1 0.971275 0.226335 0.00720117
5 1 0.627485 0.258706 0.00681085
1407 1 0.81801 0.273463 0.0116678
763 1 0.625527 0.285946 0.000480958
408 1 0.861721 0.297226 0.0299674
617 1 0.880056 0.318498 0.029937
1234 1 0.0411383 0.34648 0.0272605
274 1 0.0689559 0.350031 0.0268929
456 1 0.0550203 0.347085 0.00288555
1009 1 0.0299503 0.359185 0.00507701
312 1 0.0330167 0.386905 0.00625282
1480 1 0.0521271 0.370526 0.0182625
908 1 0.160261 0.401597 0.00170887
948 1 0.452293 0.418549 0.0277661
101 1 0.632346 0.416601 0.0352764
1201 1 0.783548 0.414933 0.00532721
1003 1 0.79198 0.4125 0.0319087
565 1 0.810823 0.411377 0.0112384
417 1 0.343872 0.45493 0.0096172
739 1 0.611967 0.434038 0.0272266
806 1 0.167768 0.548491 0.0106882
354 1 0.195718 0.546531 0.0122393
1519 2 0.457823 0.539805 0.000872237
566 1 0.872586 0.548225 0.0167816
490 1 0.352388 0.592493 0.0322579
1330 1 0.638116 0.599024 0.0282343
135 1 0.656378 0.619053 0.0209684
48 1 0.105206 0.655666 0.0160109
47 1 0.0799457 0.667103 0.0117027
926 1 0.390955 0.674007 0.00261938
624 1 0.386654 0.678336 0.0298051
205 1 0.101979 0.683504 0.017445
1366 1 0.365668 0.6822 0.0118666
1210 1 0.362636 0.709706 0.00554097
737 1 0.387612 0.699918 0.0122175
1320 1 0.744851 0.716846 0.035665
816 1 0.0425869 0.758613 0.00403508
750 1 0.242152 0.8481 0.0135067
726 1 0.261851 0.936218 0.0168415
390 1 0.656272 0.956507 0.0190521
211 1 0.92955 0.94663 0.0158356
1332 1 0.199286 0.012142 0.0361025
1018 1 0.70798 0.0132123 0.0584202
532 1 0.278791 0.0468425 0.0636646
1208 1 0.0677885 0.103518 0.0511483
126 1 0.0941086 0.0986714 0.0428842
40 1 0.0798142 0.0789864 0.0573204
7 1 0.0884049 0.10241 0.0700508
578 1 0.107029 0.0830208 0.0620535
36 1 0.554299 0.10377 0.0628827
74 1 0.650152 0.112396 0.038719
1362 1 0.873052 0.176797 0.043016
451 1 0.362279 0.198008 0.0693322
1262 1 0.88291 0.202751 0.0389368
386 1 0.890053 0.188498 0.0620292
631 1 0.019292 0.240796 0.0663372
1479 1 0.690077 0.227549 0.0537879
326 1 0.580726 0.264775 0.0687555
18 1 0.353679 0.298364 0.0448975
874 1 0.356701 0.311063 0.0696781
50 1 0.372154 0.288415 0.0634399
324 1 0.86832 0.310143 0.0540075
592 1 0.435321 0.415628 0.0498471
462 1 0.457555 0.39871 0.0468162
467 1 0.461291 0.425805 0.0532719
1163 1 0.605558 0.409267 0.0388463
383 1 0.082968 0.442556 0.0380433
1313 1 0.590542 0.432048 0.0451468
360 1 0.616807 0.429668 0.0545619
931 1 0.914409 0.466654 0.0479176
1412 1 0.650868 0.520625 0.0675608
63 1 0.674907 0.532108 0.0587588
1255 1 0.670553 0.504679 0.0558593
661 1 0.695791 0.514229 0.0635443
1218 1 0.0312261 0.589543 0.0437859
742 1 0.00501882 0.579619 0.045249
275 1 0.660144 0.604575 0.0447095
1364 1 0.743323 0.60024 0.0686336
1349 1 0.564804 0.639656 0.0433419
1039 1 0.573326 0.642393 0.0699376
1213 1 0.639104 0.623036 0.0427216
1093 1 0.812683 0.607285 0.0705119
713 1 0.839319 0.611474 0.0630624
1011 1 0.261538 0.66425 0.0581436
840 1 0.575796 0.663935 0.0521246
1054 1 0.352751 0.741903 0.063458
1190 1 0.647662 0.807325 0.0534363
112 1 0.0476205 0.828858 0.0673402
290 1 0.327115 0.823885 0.0409043
792 1 0.636365 0.83301 0.0537147
882 1 0.0897171 0.875471 0.0419115
869 1 0.94198 0.857682 0.053819
81 1 0.14598 0.975958 0.0382064
1416 1 0.157739 0.978934 0.0634278
433 1 0.331587 0.978404 0.0367781
1537 2 0.610135 0.989983 0.0492084
1323 1 0.259382 0.030574 0.0757502
230 1 0.0123814 0.0990258 0.0976644
551 1 0.0268887 0.0751846 0.100595
525 1 0.241264 0.169563 0.0857199
1103 1 0.22505 0.178934 0.106619
1431 1 0.335103 0.193682 0.0748241
684 1 0.354276 0.189782 0.0949394
131 1 0.724509 0.211614 0.0848973
560 1 0.348348 0.215729 0.0860463
280 1 0.708498 0.232058 0.074399
537 1 0.372938 0.299294 0.0892309
1443 1 0.780053 0.318852 0.099785
960 1 0.43444 0.33243 0.0835517
1405 1 0.452646 0.341042 0.103093
826 1 0.738433 0.33679 0.104774
62 1 0.778135 0.339987 0.0814437
709 1 0.755771 0.32419 0.0868858
373 1 0.765803 0.342039 0.106405
642 1 0.978701 0.348898 0.0952545
819 1 0.25602 0.387495 0.0890388
988 1 0.507906 0.378895 0.0918539
1393 1 0.450485 0.408213 0.0721907
72 1 0.68938 0.417451 0.0924304
320 1 0.983067 0.413523 0.0740395
1095 1 0.520227 0.495186 0.106608
1036 1 0.685454 0.490778 0.0749354
1081 1 0.814095 0.494621 0.0974561
492 1 0.108676 0.519373 0.0952005
918 1 0.528503 0.513155 0.0867066
52 1 0.674494 0.51555 0.0815612
288 1 0.663115 0.540996 0.0824485
109 1 0.833352 0.593972 0.0840743
1008 1 0.30485 0.615165 0.0738998
1481 1 0.741513 0.627104 0.0764699
199 1 0.766227 0.61376 0.0776799
314 1 0.855488 0.611005 0.085953
1231 1 0.829569 0.621499 0.0876204
1326 1 0.849289 0.635367 0.0735295
892 1 0.00141047 0.705783 0.0933875
937 1 0.462409 0.700309 0.0969839
444 1 0.23744 0.745235 0.0952872
1401 1 0.227752 0.727555 0.0757675
623 1 0.65602 0.724406 0.0916515
1108 1 0.761452 0.722324 0.101825
458 1 0.132075 0.782774 0.0896281
1162 1 0.950959 0.776229 0.0769694
670 1 0.468067 0.802349 0.0826899
254 1 0.549013 0.812723 0.0969719
1085 1 0.0286088 0.847127 0.0768282
258 1 0.27083 0.838823 0.0975175
876 1 0.02513 0.870527 0.0918445
939 1 0.158598 0.983733 0.0909543
625 1 0.175746 0.964673 0.0793602
441 1 0.184184 0.979568 0.101525
1230 1 0.484935 0.992258 0.100039
217 1 0.477578 0.966046 0.106838
1538 2 0.566231 0.989927 0.0731327
890 1 0.831884 0.991133 0.101393
10 1 0.858533 0.984129 0.0963765
541 1 0.0856193 0.00310068 0.113202
480 1 0.620437 0.000709755 0.123128
694 1 0.815605 0.0100418 0.11367
1175 1 0.938719 0.04356 0.113204
516 1 0.0316093 0.0967074 0.117971
430 1 0.264181 0.0868163 0.122098
253 1 0.63058 0.163451 0.12748
389 1 0.881789 0.221285 0.136887
1433 1 0.120777 0.257623 0.121214
53 1 0.755977 0.316913 0.113933
289 1 0.671384 0.323241 0.111964
910 1 0.656274 0.327133 0.135288
466 1 0.893043 0.368484 0.11385
962 1 0.964401 0.35832 0.117485
894 1 0.272378 0.400641 0.107668
719 1 0.821788 0.416548 0.112131
1321 1 0.421637 0.456961 0.138128
1319 1 0.59302 0.445008 0.137151
1236 1 0.810797 0.436801 0.128146
358 1 0.0717725 0.626823 0.138981
243 1 0.426453 0.797635 0.14098
415 1 0.546341 0.807687 0.124448
864 1 0.467992 0.898669 0.140642
1509 2 0.863606 0.934956 0.141412
399 1 0.851968 0.999445 0.118849
1438 1 0.827848 0.990716 0.129507
20 1 0.844407 0.972072 0.11731
875 1 0.871088 0.978996 0.120968
1116 1 0.209152 0.0536111 0.14368
923 1 0.199848 0.0477281 0.169439
733 1 0.94015 0.100622 0.148675
610 1 0.838116 0.122118 0.172918
428 1 0.0961868 0.172092 0.154211
589 1 0.0742833 0.207529 0.160132
246 1 0.100563 0.199563 0.155362
648 1 0.14567 0.212313 0.154475
714 1 0.320045 0.185988 0.175919
1226 1 0.347668 0.185013 0.171491
172 1 0.334171 0.209531 0.170378
465 1 0.445359 0.185929 0.173449
147 1 0.46839 0.201192 0.168542
676 1 0.0928182 0.225918 0.149801
1356 1 0.112888 0.244671 0.144692
484 1 0.119512 0.217805 0.146603
1293 1 0.672354 0.248536 0.146472
813 1 0.113919 0.27256 0.144013
367 1 0.227989 0.258864 0.167922
1000 1 0.534972 0.273883 0.147232
113 1 0.0578876 0.352998 0.151327
981 1 0.329723 0.355295 0.155743
878 1 0.302437 0.359842 0.151027
1283 1 0.132123 0.435279 0.17438
576 1 0.142629 0.455172 0.157621
103 1 0.168539 0.449408 0.148838
686 1 0.159598 0.439257 0.173151
340 1 0.678961 0.452009 0.169279
674 1 0.16483 0.466613 0.170561
862 1 0.34429 0.476835 0.160055
1119 1 0.675437 0.475877 0.154869
769 1 0.701258 0.466205 0.159736
1434 1 0.041884 0.523924 0.164857
478 1 0.216846 0.532585 0.161518
306 1 0.742878 0.549781 0.173267
1501 2 0.948339 0.562984 0.174262
955 1 0.169845 0.591192 0.15646
457 1 0.592466 0.582743 0.154229
1502 2 0.978886 0.599904 0.160671
468 1 0.0447579 0.63022 0.145772
178 1 0.0648303 0.640241 0.162628
43 1 0.060816 0.612549 0.160514
156 1 0.762958 0.638302 0.144784
762 1 0.932093 0.608667 0.170505
1382 1 0.195519 0.668018 0.177469
804 1 0.788246 0.643823 0.155623
1376 1 0.0947038 0.724705 0.145662
912 1 0.103039 0.737859 0.169007
1134 1 0.332049 0.745176 0.164665
1309 1 0.415138 0.821113 0.151384
655 1 0.31276 0.848293 0.163539
264 1 0.194198 0.881965 0.178017
508 1 0.302014 0.873985 0.160607
575 1 0.32385 0.86595 0.144847
485 1 0.327308 0.870536 0.172356
548 1 0.322688 0.892021 0.155002
588 1 0.441163 0.904715 0.146217
1510 2 0.855223 0.895225 0.170721
968 1 0.547745 0.94533 0.154196
621 1 0.626483 0.981992 0.143142
657 1 0.084252 0.0229787 0.203532
1536 2 0.160281 0.0231019 0.183046
1076 1 0.369219 0.0316018 0.21073
115 1 0.186812 0.0634915 0.188585
690 1 0.852683 0.039639 0.212366
1329 1 0.856081 0.125004 0.194212
251 1 0.828518 0.126803 0.198883
1146 1 0.878315 0.123981 0.210938
1050 1 0.517354 0.171013 0.207548
1132 1 0.313859 0.209723 0.189528
162 1 0.337669 0.19626 0.195114
310 1 0.35941 0.208115 0.182225
563 1 0.245222 0.239462 0.178601
861 1 0.721417 0.235396 0.195261
194 1 0.844661 0.222062 0.197704
308 1 0.93272 0.22846 0.213362
232 1 0.230247 0.255884 0.195733
668 1 0.703138 0.255732 0.201569
22 1 0.36066 0.296568 0.190499
1007 1 0.0584747 0.347682 0.178874
400 1 0.241683 0.386207 0.187913
1286 1 0.720347 0.373514 0.20343
1160 1 0.97652 0.368112 0.211971
842 1 0.00912855 0.423525 0.191464
687 1 0.249588 0.411816 0.179596
1311 1 0.467746 0.407163 0.193056
1181 1 0.55146 0.394967 0.202452
1295 1 0.719516 0.400058 0.212496
33 1 0.80207 0.394014 0.190413
401 1 0.142505 0.458797 0.185202
88 1 0.147657 0.434513 0.197833
38 1 0.168015 0.453776 0.1953
1423 1 0.863407 0.480368 0.201514
916 1 0.369824 0.524783 0.213413
1473 1 0.395358 0.517082 0.204874
1312 1 0.684389 0.533658 0.188409
1375 1 0.0382886 0.536478 0.189695
1049 1 0.385685 0.542834 0.199032
1354 1 0.413013 0.537204 0.19665
607 1 0.98032 0.581347 0.206118
611 1 0.290154 0.626002 0.211458
139 1 0.541776 0.625465 0.18821
29 1 0.669656 0.633205 0.20952
420 1 0.990461 0.607523 0.206935
595 1 0.220697 0.67454 0.188003
545 1 0.394817 0.694781 0.190233
605 1 0.835893 0.726863 0.186523
967 1 0.829808 0.749273 0.202505
1099 1 0.853335 0.73448 0.207053
940 1 0.600152 0.756779 0.190625
682 1 0.812006 0.769361 0.19471
836 1 0.207813 0.787348 0.190447
1200 1 0.232122 0.800127 0.184682
809 1 0.220501 0.802878 0.210076
886 1 0.795778 0.792111 0.197179
30 1 0.823035 0.793408 0.203805
787 1 0.992193 0.785934 0.192209
907 1 0.656741 0.850074 0.190644
523 1 0.556664 0.859237 0.197633
1534 2 0.356789 0.906514 0.186457
1533 2 0.406303 0.908697 0.179851
93 1 0.0427179 0.960444 0.187662
959 1 0.708048 0.953106 0.189135
839 1 0.733428 0.945589 0.179819
125 1 0.922426 0.94605 0.182064
781 1 0.430652 0.969013 0.197905
1106 1 0.396299 0.0272681 0.216677
1535 2 0.174247 0.0385749 0.228461
1055 1 0.275434 0.0519542 0.216587
1250 1 0.299198 0.0600417 0.228793
1105 1 0.587525 0.0569829 0.225749
1436 1 0.605199 0.0545464 0.247408
343 1 0.275717 0.0755175 0.23154
672 1 0.300138 0.0878187 0.225692
463 1 0.899049 0.105478 0.214483
422 1 0.989931 0.0916949 0.239998
1086 1 0.887282 0.117878 0.236747
148 1 0.903545 0.132753 0.219354
252 1 0.618505 0.207665 0.217863
28 1 0.95402 0.211502 0.220159
893 1 0.563532 0.279541 0.249734
228 1 0.664923 0.361769 0.247345
818 1 0.770002 0.426563 0.249554
257 1 0.898518 0.396397 0.240214
983 1 0.0899548 0.491049 0.224264
140 1 0.245445 0.490289 0.217685
1028 1 0.679863 0.464761 0.238133
1455 1 0.866896 0.471363 0.228276
556 1 0.144377 0.536636 0.235528
530 1 0.00547032 0.586174 0.21714
509 1 0.00494504 0.586912 0.24493
574 1 0.80809 0.57186 0.249499
751 1 0.982217 0.594943 0.230433
785 1 0.980286 0.5746 0.249229
1172 1 0.00514322 0.610856 0.23051
549 1 0.500203 0.624279 0.247926
418 1 0.64856 0.615764 0.215702
136 1 0.744074 0.644923 0.228859
1472 1 0.383457 0.762434 0.233021
1474 1 0.486457 0.764688 0.246835
216 1 0.805352 0.778965 0.220098
61 1 0.0345582 0.819078 0.236021
1157 1 0.100379 0.820471 0.227548
118 1 0.804092 0.807002 0.219391
651 1 0.11814 0.835295 0.24343
1360 1 0.947335 0.856146 0.247877
106 1 0.871917 0.890174 0.216104
1467 1 0.250664 0.914991 0.24992
1398 1 0.451831 0.917609 0.248352
429 1 0.0170177 0.0160812 0.276032
495 1 0.295702 0.0765743 0.25108
221 1 0.978706 0.0779961 0.261765
1486 1 0.996095 0.0995654 0.266218
1233 1 0.118651 0.122205 0.274897
398 1 0.612748 0.145897 0.279629
915 1 0.844303 0.22699 0.268518
504 1 0.839132 0.249987 0.283744
725 1 0.0437728 0.324124 0.284763
188 1 0.13468 0.338514 0.262928
974 1 0.117797 0.350881 0.281683
546 1 0.240634 0.33196 0.256655
699 1 0.510819 0.344183 0.258224
1532 2 0.986761 0.353137 0.257063
1531 2 0.0354977 0.364956 0.259838
846 1 0.123873 0.363789 0.257587
1194 1 0.143637 0.360988 0.277226
533 1 0.374986 0.390329 0.263749
1373 1 0.502313 0.36127 0.278794
727 1 0.0546456 0.429301 0.255105
539 1 0.53476 0.431618 0.270225
1466 1 0.508237 0.436383 0.262397
338 1 0.620958 0.441736 0.260777
1413 1 0.853108 0.447555 0.275902
336 1 0.865739 0.462674 0.255485
766 1 0.14676 0.598278 0.260088
746 1 0.502972 0.600949 0.263272
643 1 0.69052 0.571981 0.278955
1497 1 0.40213 0.607144 0.262318
291 1 0.477677 0.608631 0.253858
807 1 0.490199 0.623452 0.274131
37 1 0.86914 0.641177 0.263057
1067 1 0.549966 0.682325 0.280708
1415 1 0.092921 0.722809 0.251095
67 1 0.216917 0.730544 0.256135
832 1 0.728253 0.742087 0.255323
1078 1 0.457081 0.761643 0.284787
973 1 0.465903 0.751263 0.260332
483 1 0.473409 0.777209 0.268196
612 1 0.979341 0.779809 0.257006
718 1 0.234593 0.808251 0.279635
514 1 0.729526 0.814831 0.26027
472 1 0.729845 0.830707 0.283407
98 1 0.882837 0.84151 0.26081
1144 1 0.0735355 0.892547 0.2561
159 1 0.631872 0.871201 0.281243
554 1 0.0599526 0.909571 0.273796
1102 1 0.204615 0.960271 0.275494
1270 1 0.36605 0.95146 0.261374
1448 1 0.665083 0.950352 0.261677
933 1 0.677799 0.962384 0.283608
1386 1 0.891842 0.932514 0.284583
419 1 0.894489 0.942749 0.258589
723 1 0.36971 0.979076 0.258001
765 1 0.476825 0.995435 0.277155
1430 1 0.73631 0.970582 0.258676
569 1 0.764215 0.972445 0.25638
823 1 0.752525 0.96689 0.281279
1488 1 0.264109 0.0183693 0.312868
665 1 0.87534 0.0330936 0.310689
593 1 0.900412 0.0263241 0.321318
1051 1 0.259739 0.0410863 0.296984
774 1 0.434941 0.0481519 0.28839
255 1 0.738865 0.0963772 0.302561
1068 1 0.756474 0.0745996 0.304321
856 1 0.109185 0.126 0.301039
296 1 0.588733 0.1577 0.288081
1141 1 0.976211 0.182679 0.288715
594 1 0.110882 0.24223 0.290479
154 1 0.131227 0.232395 0.306867
1143 1 0.209188 0.218111 0.309763
123 1 0.569703 0.247635 0.317912
927 1 0.132517 0.25873 0.297276
1220 1 0.113397 0.251989 0.316482
241 1 0.7647 0.309888 0.286548
722 1 0.016517 0.329852 0.287292
65 1 0.0351845 0.342991 0.303578
793 1 0.0100224 0.354198 0.29965
488 1 0.140203 0.336466 0.290305
1342 1 0.603597 0.328254 0.287191
1489 1 0.594694 0.348999 0.30386
396 1 0.992383 0.332658 0.301094
1303 1 0.00390934 0.380631 0.293204
1331 1 0.239261 0.381582 0.310373
80 1 0.266705 0.375996 0.312125
1152 1 0.787194 0.365105 0.314132
169 1 0.287658 0.440626 0.298142
1249 1 0.516252 0.441681 0.288762
1274 1 0.972008 0.454094 0.291505
476 1 0.965751 0.481068 0.296054
239 1 0.680401 0.506651 0.29169
395 1 0.450619 0.545327 0.308144
969 1 0.561972 0.659293 0.291332
985 1 0.156764 0.737389 0.298473
1421 1 0.359596 0.734593 0.308967
645 1 0.0263433 0.752681 0.307048
1207 1 0.605986 0.768162 0.318231
1388 1 0.622226 0.789858 0.310951
606 1 0.301951 0.896431 0.314211
1370 1 0.0928963 0.956329 0.317469
590 1 0.106326 0.932969 0.309487
736 1 0.116549 0.958109 0.302584
1222 1 0.00322858 0.0307881 0.345646
266 1 0.688304 0.0189235 0.33868
1425 1 0.082885 0.0481552 0.344943
337 1 0.375561 0.051309 0.350962
259 1 0.985532 0.0449572 0.329108
888 1 0.952408 0.120565 0.338492
443 1 0.0493844 0.162251 0.356009
857 1 0.74351 0.164655 0.349174
393 1 0.802949 0.160369 0.322965
798 1 0.370582 0.204775 0.322754
1005 1 0.860665 0.195355 0.339359
1355 1 0.124088 0.232901 0.333839
66 1 0.355035 0.227821 0.326578
1271 1 0.577585 0.227742 0.336067
304 1 0.14073 0.252878 0.323295
633 1 0.121255 0.259536 0.342154
531 1 0.254274 0.276469 0.336083
1090 1 0.916514 0.25499 0.330263
1142 1 0.424282 0.301235 0.336121
166 1 0.670915 0.306823 0.336082
679 1 0.660114 0.289815 0.355613
656 1 0.925283 0.339544 0.334964
932 1 0.350411 0.363083 0.339839
1127 1 0.103598 0.422613 0.349674
660 1 0.128388 0.423954 0.337303
891 1 0.109935 0.444834 0.33426
1151 1 0.148246 0.429718 0.356105
712 1 0.277992 0.440889 0.324485
208 1 0.115076 0.466716 0.350878
305 1 0.20309 0.493494 0.345316
658 1 0.75418 0.495826 0.343804
439 1 0.193353 0.511246 0.325887
277 1 0.264802 0.532953 0.343293
1087 1 0.892645 0.624284 0.353877
1025 1 0.0256921 0.6449 0.352085
1490 1 0.45032 0.669691 0.35591
1045 1 0.787152 0.664386 0.341346
701 1 0.469972 0.68907 0.35084
730 1 0.747291 0.717637 0.331727
9 1 0.84566 0.741989 0.331252
1261 1 0.834529 0.767007 0.336686
506 1 0.861222 0.761883 0.343451
1339 1 0.483597 0.812836 0.337941
1240 1 0.0110641 0.848164 0.344481
1272 1 0.197868 0.882795 0.354571
1034 1 0.0946013 0.934458 0.334873
1287 1 0.117503 0.949552 0.329231
42 1 0.322187 0.00293706 0.363126
598 1 0.69105 0.00242164 0.361153
794 1 0.697184 0.00798912 0.387917
795 1 0.477841 0.0723145 0.390137
174 1 0.376641 0.138201 0.388048
620 1 0.397874 0.13078 0.371268
1079 1 0.550552 0.134133 0.380907
790 1 0.0462512 0.185802 0.370943
34 1 0.262568 0.279472 0.362722
345 1 0.919299 0.257635 0.358061
55 1 0.999063 0.254143 0.38711
1004 1 0.412608 0.308968 0.360439
1094 1 0.215439 0.325288 0.387523
797 1 0.0199051 0.404743 0.361385
78 1 0.009496 0.394001 0.385127
1147 1 0.0222315 0.419004 0.38544
1139 1 0.101364 0.402677 0.36895
799 1 0.126267 0.414112 0.363548
35 1 0.53274 0.407398 0.375135
379 1 0.555427 0.423669 0.372301
70 1 0.106406 0.429037 0.376771
104 1 0.0960089 0.447732 0.358611
587 1 0.123146 0.44129 0.358523
975 1 0.637112 0.454346 0.372417
1422 1 0.815343 0.462865 0.377156
1485 1 0.318408 0.479585 0.382639
1352 1 0.881268 0.468101 0.380796
426 1 0.105603 0.538482 0.38762
1402 1 0.770189 0.566393 0.368628
1333 1 0.171683 0.631494 0.380458
268 1 0.15855 0.654911 0.388415
991 1 0.741303 0.645201 0.39172
359 1 0.907289 0.645533 0.36466
717 1 0.900318 0.668907 0.378428
1082 1 0.927201 0.663731 0.37219
1138 1 0.120086 0.749267 0.378817
1334 1 0.519766 0.740384 0.387931
887 1 0.840758 0.749206 0.35777
1390 1 0.0954036 0.751094 0.365718
527 1 0.0879699 0.778024 0.36381
348 1 0.101713 0.768968 0.386465
1027 1 0.114967 0.770876 0.361758
1264 1 0.818914 0.766469 0.359822
281 1 0.845003 0.776728 0.360776
904 1 0.326282 0.814504 0.374759
493 1 0.0293768 0.843197 0.365155
24 1 0.211292 0.877229 0.378577
640 1 0.684382 0.882625 0.368324
1305 1 0.408225 0.916832 0.382121
1131 1 0.491487 0.901237 0.36099
1397 1 0.488558 0.923733 0.377258
1033 1 0.482045 0.898332 0.387239
1269 1 0.508796 0.904848 0.382557
1429 1 0.667065 0.90254 0.377815
844 1 0.693195 0.909004 0.370372
557 1 0.512852 0.931872 0.388314
596 1 0.700078 0.934969 0.377867
734 1 0.775825 0.962597 0.381782
206 1 0.772853 0.981681 0.361441
999 1 0.772103 0.989607 0.388198
1183 1 0.796348 0.980913 0.376499
1060 1 0.901706 0.968904 0.368428
1111 1 0.0516789 0.024924 0.41058
1394 1 0.238867 0.0348612 0.416598
248 1 0.796459 0.000566521 0.396325
757 1 0.963929 0.0321677 0.412759
637 1 0.253585 0.0437576 0.394472
302 1 0.17288 0.104689 0.402368
1465 1 0.145655 0.109123 0.397208
555 1 0.163642 0.130662 0.397122
1195 1 0.157004 0.118022 0.42128
372 1 0.23397 0.114172 0.419194
652 1 0.240823 0.135262 0.401998
641 1 0.260643 0.1227 0.417386
1030 1 0.808184 0.147285 0.411639
510 1 0.574336 0.228915 0.405831
327 1 0.574024 0.256526 0.400836
75 1 0.750536 0.252835 0.39711
649 1 0.819691 0.279277 0.413568
1044 1 0.844188 0.285153 0.401206
452 1 0.060112 0.30222 0.407112
391 1 0.224033 0.318002 0.413223
817 1 0.820911 0.298735 0.393385
570 1 0.236971 0.338753 0.39946
1451 1 0.460758 0.36972 0.427071
524 1 0.627416 0.458772 0.398375
87 1 0.391178 0.521891 0.427508
1378 1 0.516362 0.502137 0.422538
938 1 0.0152702 0.556153 0.393575
1353 1 0.0343715 0.55686 0.41412
1291 1 0.129386 0.538716 0.402512
292 1 0.442744 0.559906 0.409107
1346 1 0.6619 0.545631 0.412737
341 1 0.211365 0.572488 0.415508
157 1 0.163459 0.634466 0.40706
334 1 0.496734 0.614232 0.396704
1176 1 0.62989 0.630918 0.410442
1260 1 0.726792 0.641821 0.41543
411 1 0.74683 0.623409 0.408416
698 1 0.0283968 0.665783 0.420839
567 1 0.0548775 0.667698 0.411936
629 1 0.166181 0.6613 0.41459
382 1 0.184788 0.649814 0.397096
654 1 0.753827 0.649427 0.416407
970 1 0.503407 0.723637 0.403403
542 1 0.592237 0.735135 0.415285
167 1 0.146717 0.87466 0.407735
950 1 0.414697 0.906591 0.407433
522 1 0.494654 0.917033 0.403671
1396 1 0.522036 0.912133 0.405994
171 1 0.688527 0.893734 0.393596
1107 1 0.708563 0.913155 0.393318
1482 1 0.681559 0.92077 0.393186
585 1 0.246994 0.952809 0.418972
1246 1 0.269654 0.938661 0.427378
994 1 0.0562537 0.997615 0.406025
364 1 0.59856 0.99098 0.400527
1199 1 0.79014 0.97405 0.402936
635 1 0.219162 0.0222466 0.432024
57 1 0.450945 0.0307273 0.433862
409 1 0.77498 0.0829687 0.454679
142 1 0.0350677 0.136635 0.461132
214 1 0.241499 0.139039 0.429796
899 1 0.569652 0.13515 0.459078
768 1 0.0314895 0.154223 0.439561
673 1 0.398371 0.200427 0.457696
1164 1 0.650091 0.209252 0.436383
943 1 0.65913 0.182839 0.436486
573 1 0.675859 0.20296 0.446213
41 1 0.653023 0.195639 0.460686
602 1 0.115681 0.244449 0.447456
833 1 0.22746 0.223585 0.442484
917 1 0.249184 0.219663 0.459808
1316 1 0.660332 0.222594 0.458781
425 1 0.671182 0.227288 0.433345
374 1 0.937231 0.275908 0.455432
1338 1 0.837172 0.351011 0.448651
1450 1 0.370872 0.378677 0.452136
972 1 0.455808 0.362051 0.453606
335 1 0.378101 0.403849 0.462214
59 1 0.23939 0.480492 0.441971
347 1 0.174102 0.524055 0.458105
1122 1 0.450045 0.551526 0.434874
361 1 0.962253 0.584545 0.445511
821 1 0.221 0.633404 0.462355
297 1 0.647287 0.625272 0.431723
877 1 0.743663 0.631237 0.435115
1187 1 0.910372 0.620422 0.433225
1242 1 0.0282363 0.662983 0.448701
94 1 0.0486767 0.651149 0.433658
1445 1 0.634857 0.650374 0.430044
1299 1 0.0475972 0.679091 0.436459
708 1 0.348471 0.749363 0.449529
195 1 0.810956 0.741504 0.449509
1096 1 0.0579028 0.779983 0.442054
1417 1 0.351269 0.77684 0.444569
1056 1 0.420723 0.771982 0.432083
1221 1 0.068602 0.804291 0.43345
1361 1 0.0580277 0.801727 0.459562
538 1 0.0821351 0.789188 0.452771
1149 1 0.0810283 0.817065 0.455059
1524 2 0.28571 0.797474 0.456123
872 1 0.419496 0.798249 0.44188
1452 1 0.0560775 0.825954 0.445828
630 1 0.476638 0.862813 0.461837
1368 1 0.928593 0.868176 0.441563
667 1 0.0489251 0.899735 0.435382
1239 1 0.0760328 0.906571 0.432954
1117 1 0.282492 0.945923 0.451185
913 1 0.260526 0.96077 0.442163
1493 1 0.12251 0.0256123 0.466087
1358 1 0.6298 0.0463782 0.479174
845 1 0.951971 0.0574037 0.470361
1123 1 0.944226 0.0463468 0.494962
384 1 0.394364 0.0807102 0.496131
995 1 0.627954 0.136066 0.498932
965 1 0.0226587 0.161475 0.465191
54 1 0.757253 0.154488 0.484381
137 1 0.424636 0.201002 0.467557
132 1 0.403006 0.199238 0.485347
1314 1 0.633085 0.305289 0.474598
1021 1 0.929882 0.285759 0.480659
936 1 0.633628 0.333191 0.471661
865 1 0.175305 0.358509 0.469092
1048 1 0.353758 0.39215 0.46983
12 1 0.0185432 0.411282 0.497676
786 1 0.0115568 0.412842 0.470543
1041 1 0.228202 0.403181 0.482524
1513 2 0.272109 0.424025 0.482319
956 1 0.625479 0.41908 0.482007
944 1 0.00049772 0.430916 0.48894
1514 2 0.230506 0.451669 0.480084
1112 1 0.0589175 0.522835 0.466286
526 1 0.0679552 0.514603 0.491544
73 1 0.477807 0.506664 0.496498
780 1 0.593597 0.577943 0.494462
1278 1 0.209805 0.608302 0.468012
474 1 0.197061 0.631672 0.476895
1238 1 0.221221 0.623541 0.488625
552 1 0.458714 0.612869 0.486025
922 1 0.357985 0.658564 0.492485
1104 1 0.563301 0.663733 0.494894
1384 1 0.553576 0.689452 0.489292
952 1 0.917219 0.701938 0.477552
1118 1 0.424569 0.732165 0.497629
1101 1 0.494464 0.772872 0.495083
313 1 0.928947 0.811654 0.474021
1180 1 0.165756 0.856338 0.478226
1064 1 0.291211 0.836173 0.485003
1159 1 0.498458 0.850472 0.474447
238 1 0.862446 0.852881 0.494436
158 1 0.483061 0.869364 0.488356
14 1 0.583082 0.860443 0.464948
124 1 0.225854 0.924049 0.487054
1294 1 0.752895 0.900071 0.495789
1059 1 0.17225 0.00187442 0.503296
449 1 0.316506 0.00290058 0.504558
824 1 0.299464 0.0174362 0.521288
1449 1 0.48813 0.00395751 0.513855
141 1 0.705898 0.0338262 0.516573
1010 1 0.254458 0.0901174 0.526238
747 1 0.508721 0.0798781 0.511458
811 1 0.194268 0.139895 0.527151
1225 1 0.474037 0.132357 0.521649
1061 1 0.169177 0.149815 0.533809
949 1 0.188996 0.167457 0.525566
881 1 0.213755 0.158532 0.534862
1284 1 0.278309 0.213451 0.519222
196 1 0.895472 0.20435 0.514103
571 1 0.195648 0.253318 0.507984
392 1 0.151978 0.298835 0.512632
1357 1 0.404028 0.319822 0.513027
1169 1 0.404629 0.303187 0.535549
868 1 0.873594 0.307485 0.525769
829 1 0.38482 0.32286 0.533339
15 1 0.386156 0.341374 0.512369
1156 1 0.302515 0.36244 0.532046
945 1 0.463937 0.39082 0.515756
1188 1 0.218934 0.395024 0.507724
475 1 0.304795 0.425005 0.518277
1244 1 0.566831 0.421077 0.527705
518 1 0.543217 0.434929 0.521545
362 1 0.712075 0.461258 0.535602
192 1 0.729895 0.455404 0.514925
619 1 0.724245 0.436058 0.534435
1387 1 0.128296 0.50906 0.513121
1341 1 0.150844 0.517307 0.527647
808 1 0.356456 0.519378 0.505382
1296 1 0.352082 0.51178 0.532039
464 1 0.375151 0.526203 0.525165
350 1 0.66386 0.501845 0.515584
825 1 0.700907 0.619945 0.528981
369 1 0.291667 0.684907 0.508655
1498 1 0.776385 0.706105 0.509024
165 1 0.189101 0.771418 0.502266
1167 1 0.311465 0.75522 0.532077
1322 1 0.515207 0.777554 0.513393
1464 1 0.688983 0.780556 0.505696
543 1 0.689098 0.757888 0.522237
745 1 0.699346 0.782229 0.53172
270 1 0.949471 0.756085 0.527441
1523 2 0.305382 0.792835 0.501865
561 1 0.79996 0.811884 0.504283
90 1 0.0855494 0.829388 0.522652
410 1 0.791082 0.825471 0.527175
1022 1 0.862768 0.827609 0.506629
421 1 0.960599 0.876052 0.513284
1381 1 0.944808 0.869173 0.535366
1088 1 0.98802 0.870361 0.513525
1420 1 0.972053 0.862691 0.535217
1128 1 0.568805 0.938386 0.515209
511 1 0.582317 0.962074 0.508593
152 1 0.800678 0.951682 0.520031
1253 1 0.0718378 0.991728 0.532461
581 1 0.0940435 0.9746 0.533449
32 1 0.297115 0.989605 0.520078
1177 1 0.324319 0.984857 0.524445
764 1 0.415497 0.0222764 0.54281
1193 1 0.440638 0.0299099 0.552664
366 1 0.816723 0.027333 0.546642
160 1 0.837687 0.0122033 0.535732
1178 1 0.91337 0.00925612 0.567677
1043 1 0.973643 0.0140151 0.551488
847 1 0.351048 0.0670285 0.547314
688 1 0.602987 0.0382145 0.56233
801 1 0.579918 0.0434247 0.547227
748 1 0.0670604 0.083866 0.536695
1073 1 0.697339 0.0858262 0.567488
489 1 0.149398 0.135083 0.546643
1204 1 0.408831 0.122915 0.561205
1288 1 0.741425 0.132597 0.558013
1254 1 0.165728 0.152034 0.561633
437 1 0.146835 0.162945 0.544052
1469 1 0.172078 0.174689 0.54649
777 1 0.191073 0.154674 0.550616
1315 1 0.28992 0.19689 0.538674
1219 1 0.583816 0.193048 0.554597
1297 1 0.714142 0.199217 0.569756
941 1 0.840376 0.202568 0.556702
758 1 0.69851 0.222341 0.569254
1013 1 0.13489 0.255315 0.556446
1155 1 0.769773 0.263173 0.558391
650 1 0.966577 0.25344 0.566021
204 1 0.740428 0.298318 0.536114
716 1 0.756733 0.288127 0.55642
469 1 0.886126 0.317259 0.548896
502 1 0.740965 0.32262 0.549891
184 1 0.116105 0.380053 0.550077
1098 1 0.844186 0.377242 0.566276
568 1 0.138299 0.394332 0.540536
1211 1 0.544041 0.417784 0.543744
830 1 0.853998 0.398135 0.550317
183 1 0.0482213 0.455795 0.53996
1140 1 0.739731 0.458493 0.540869
773 1 0.720819 0.448807 0.559119
1337 1 0.89652 0.441236 0.569674
601 1 0.724245 0.476427 0.555631
370 1 0.887256 0.46762 0.567331
455 1 0.251071 0.549268 0.567922
702 1 0.191226 0.589804 0.561977
450 1 0.259081 0.576104 0.566156
961 1 0.698445 0.594362 0.539832
879 1 0.68657 0.615895 0.55301
791 1 0.683653 0.639715 0.538652
1453 1 0.707733 0.634131 0.552077
1461 1 0.799656 0.618206 0.563222
79 1 0.191181 0.672782 0.549882
1351 1 0.218724 0.667221 0.550405
233 1 0.352978 0.675274 0.570786
368 1 0.450786 0.674399 0.562845
1282 1 0.209438 0.692865 0.544393
318 1 0.187267 0.698395 0.56041
333 1 0.212646 0.708987 0.567013
1069 1 0.207174 0.682109 0.570793
1277 1 0.231994 0.690147 0.560098
405 1 0.844749 0.694625 0.558694
855 1 0.198714 0.718523 0.544729
1427 1 0.189587 0.72422 0.570637
700 1 0.311464 0.747579 0.559043
1031 1 0.410232 0.771795 0.561075
278 1 0.721298 0.857117 0.563861
133 1 0.864217 0.886468 0.567096
1522 2 0.307836 0.916117 0.541094
250 1 0.383414 0.908969 0.570676
1521 2 0.332911 0.954327 0.561402
1539 2 0.808003 0.980925 0.558156
577 1 0.142653 0.0224927 0.592462
46 1 0.131521 0.04723 0.599646
1475 1 0.159343 0.0445624 0.597135
197 1 0.526512 0.0854156 0.580622
1186 1 0.596306 0.11939 0.595223
1237 1 0.881661 0.119668 0.57808
1026 1 0.893568 0.144397 0.572234
177 1 0.0114509 0.202732 0.571534
895 1 0.691396 0.20059 0.585883
1120 1 0.0144565 0.221447 0.592226
600 1 0.671667 0.216677 0.574424
213 1 0.713748 0.216333 0.591975
285 1 0.68799 0.226921 0.594805
330 1 0.781825 0.245137 0.576305
1404 1 0.736578 0.304406 0.604978
1126 1 0.613158 0.335221 0.587651
134 1 0.632908 0.354704 0.591873
317 1 0.937832 0.376121 0.598255
1032 1 0.965171 0.382444 0.598427
1302 1 0.659135 0.421972 0.594776
924 1 0.847313 0.402923 0.577147
309 1 0.506474 0.455734 0.581619
613 1 0.514965 0.447723 0.607137
209 1 0.141814 0.471029 0.587895
724 1 0.527937 0.468875 0.594032
236 1 0.84135 0.56724 0.599425
715 1 0.329421 0.574439 0.59212
843 1 0.929171 0.582649 0.589558
1505 2 0.195011 0.635053 0.579311
198 1 0.515274 0.629219 0.586601
323 1 0.543012 0.627759 0.590682