LAMMPS (7 Feb 2024 - Update 1)
# PART B - MOLECULAR DYNAMICS

# 1) Initialization
units lj
dimension 3
atom_style molecular
bond_style harmonic
pair_style lj/cut 2.5
boundary p p p

# 2) System definition
read_data ../energy-minimization/minimized_coordinate.data
Reading data file ...
  orthogonal box = (-20 -20 -20) to (20 20 20)
  1 by 1 by 1 MPI processor grid
  reading atoms ...
  1540 atoms
  reading velocities ...
  1540 velocities
  scanning bonds ...
  1 = max bonds/atom
  reading bonds ...
  20 bonds
Finding 1-2 1-3 1-4 neighbors ...
  special bond factors lj:    0        0        0       
  special bond factors coul:  0        0        0       
     1 = max # of 1-2 neighbors
     0 = max # of 1-3 neighbors
     0 = max # of 1-4 neighbors
     1 = max # of special neighbors
  special bonds CPU = 0.000 seconds
  read_data CPU = 0.005 seconds

# 3) Visualization
thermo 1000
dump dump_all_atoms_per_100_timestep all atom 1000 dump_all_atoms_per_100_timestep.md.lammpstrj

# 4) Run
fix fix_nve_ensemble all nve
fix fix_langevin_thermostat all langevin 1 1 0.1 94728

run 10000
Generated 0 of 1 mixed pair_coeff terms from geometric mixing rule
WARNING: Communication cutoff 2.8 is shorter than a bond length based estimate of 3.3. This may lead to errors. (../comm.cpp:723)
Neighbor list info ...
  update: every = 1 steps, delay = 0 steps, check = yes
  max neighbors/atom: 2000, page size: 100000
  master list distance cutoff = 2.8
  ghost atom cutoff = 2.8
  binsize = 1.4, bins = 29 29 29
  1 neighbor lists, perpetual/occasional/extra = 1 0 0
  (1) pair lj/cut, perpetual
      attributes: half, newton on
      pair build: half/bin/newton
      stencil: half/bin/3d
      bin: standard
WARNING: Communication cutoff 2.8 is shorter than a bond length based estimate of 3.3. This may lead to errors. (../comm.cpp:723)
Per MPI rank memory allocation (min/avg/max) = 6.177 | 6.177 | 6.177 Mbytes
   Step          Temp          E_pair         E_mol          TotEng         Press     
         0   0             -0.95728549     5.124847e-07  -0.95728497    -0.00012810298
      1000   1.0091031     -0.26176158     0.0057483251   1.2566585      0.022635492  
      2000   1.0321829     -0.23582954     0.0032021887   1.3146416      0.023390055  
      3000   0.98487724    -0.22735251     0.0057280656   1.2547321      0.022626825  
      4000   1.0148484     -0.22867258     0.0090241814   1.3016357      0.02210849   
      5000   0.97316567    -0.21859545     0.010332039    1.2505372      0.020853577  
      6000   1.0057785     -0.21120987     0.005137861    1.3016161      0.022274319  
      7000   1.0029099     -0.2220398      0.0077729215   1.2891211      0.02091557   
      8000   0.98462433    -0.22308713     0.0082900469   1.2611804      0.020678976  
      9000   1.0178856     -0.21151864     0.0088957287   1.3232141      0.023943449  
     10000   1.003179      -0.21410984     0.0063040841   1.2959856      0.020758459  
Loop time of 1.04205 on 1 procs for 10000 steps with 1540 atoms

Performance: 4145680.614 tau/day, 9596.483 timesteps/s, 14.779 Matom-step/s
100.0% CPU use with 1 MPI tasks x no OpenMP threads

MPI task timing breakdown:
Section |  min time  |  avg time  |  max time  |%varavg| %total
---------------------------------------------------------------
Pair    | 0.12764    | 0.12764    | 0.12764    |   0.0 | 12.25
Bond    | 0.0017565  | 0.0017565  | 0.0017565  |   0.0 |  0.17
Neigh   | 0.25215    | 0.25215    | 0.25215    |   0.0 | 24.20
Comm    | 0.043942   | 0.043942   | 0.043942   |   0.0 |  4.22
Output  | 0.0054882  | 0.0054882  | 0.0054882  |   0.0 |  0.53
Modify  | 0.58623    | 0.58623    | 0.58623    |   0.0 | 56.26
Other   |            | 0.02484    |            |       |  2.38

Nlocal:           1540 ave        1540 max        1540 min
Histogram: 1 0 0 0 0 0 0 0 0 0
Nghost:            705 ave         705 max         705 min
Histogram: 1 0 0 0 0 0 0 0 0 0
Neighs:           1873 ave        1873 max        1873 min
Histogram: 1 0 0 0 0 0 0 0 0 0

Total # of neighbors = 1873
Ave neighs/atom = 1.2162338
Ave special neighs/atom = 0.025974026
Neighbor list builds = 1247
Dangerous builds = 0
Total wall time: 0:00:01
