ITEM: TIMESTEP
0
ITEM: NUMBER OF ATOMS
1000
ITEM: BOX BOUNDS pp pp pp
-2.0000000000000000e+01 2.0000000000000000e+01
-2.0000000000000000e+01 2.0000000000000000e+01
-2.0000000000000000e+01 2.0000000000000000e+01
ITEM: ATOMS id type xs ys zs
614 1 0.713519 0.1071 0.0261422
667 1 0.940152 0.134588 0.0226754
653 1 0.729897 0.378891 0.0174017
201 1 0.80778 0.36003 0.027165
56 1 0.285976 0.400609 0.0299349
469 1 0.883293 0.497413 0.0243896
863 1 0.227022 0.56649 0.00236696
812 1 0.28539 0.55358 0.0264222
323 1 0.627689 0.561315 0.0177589
977 1 0.734012 0.545368 0.0046515
761 1 0.984921 0.560602 0.0333179
217 1 0.323533 0.622123 0.0130831
558 1 0.561589 0.625573 0.00472616
295 1 0.855693 0.635034 0.0236595
751 1 0.632455 0.665676 0.0085084
309 1 0.397376 0.692807 0.00906451
286 1 0.740211 0.7316 0.00565989
548 1 0.489843 0.783067 0.00533933
648 1 0.502098 0.756412 0.0191654
518 1 0.272257 0.829595 0.00792239
391 1 0.0699046 0.886774 0.0074907
147 1 0.762777 0.988219 0.00448772
662 1 0.619269 0.0559332 0.0692977
301 1 0.521039 0.0969871 0.0623993
189 1 0.780752 0.0924044 0.0408845
502 1 0.0129178 0.108946 0.0564676
730 1 0.569892 0.182369 0.0693089
436 1 0.821872 0.209975 0.0543112
543 1 0.024234 0.300653 0.0666365
850 1 0.330654 0.307673 0.0551168
349 1 0.819499 0.32207 0.0371096
539 1 0.323106 0.44452 0.049888
415 1 0.423719 0.439939 0.0558203
925 1 0.49851 0.459692 0.0433606
547 1 0.179716 0.484088 0.0604206
406 1 0.83254 0.498485 0.0364576
367 1 0.257723 0.54323 0.0629272
582 1 0.586514 0.546858 0.0368866
447 1 0.172406 0.625813 0.0459893
250 1 0.331982 0.616175 0.0494982
372 1 0.437414 0.621113 0.0490677
855 1 0.399992 0.669129 0.0514142
346 1 0.870392 0.684241 0.0440116
867 1 0.532917 0.744395 0.055136
326 1 0.669706 0.743801 0.0672801
388 1 0.802983 0.727022 0.0534398
291 1 0.228283 0.754569 0.0469977
472 1 0.296529 0.757187 0.0406159
552 1 0.58147 0.758258 0.0491777
503 1 0.0502051 0.797349 0.0373453
674 1 0.506803 0.843877 0.0420258
178 1 0.867486 0.833406 0.0579971
432 1 0.113874 0.879161 0.0609104
452 1 0.315695 0.890585 0.0582776
814 1 0.640205 0.927296 0.062096
251 1 0.915566 0.918907 0.0634405
483 1 0.414348 0.948001 0.0497951
428 1 0.656628 0.951749 0.0424412
255 1 0.941449 0.931817 0.0479708
671 1 0.665679 0.0671201 0.0872301
669 1 0.670678 0.0906213 0.0723079
226 1 0.950981 0.132986 0.0955041
510 1 0.808423 0.167197 0.0865271
762 1 0.974662 0.147205 0.0788549
401 1 0.0545733 0.214202 0.092731
595 1 0.219623 0.208371 0.0862159
83 1 0.589354 0.264716 0.0865384
591 1 0.671939 0.276439 0.102518
155 1 0.155014 0.312017 0.0741324
831 1 0.0664811 0.347777 0.0813294
163 1 0.241228 0.321835 0.0878767
93 1 0.546579 0.349384 0.104882
357 1 0.700382 0.328142 0.0862184
916 1 0.790404 0.327013 0.104996
225 1 0.141213 0.370207 0.0769888
545 1 0.776009 0.386273 0.0874092
321 1 0.385698 0.427267 0.0730379
641 1 0.619765 0.395971 0.0770901
681 1 0.776964 0.426017 0.0757814
177 1 0.855918 0.41287 0.103223
504 1 0.662253 0.490932 0.0934995
167 1 0.111651 0.511637 0.078389
605 1 0.856402 0.554775 0.100371
188 1 0.899361 0.553227 0.0782877
463 1 0.94583 0.569531 0.0997379
865 1 0.831118 0.597137 0.07682
861 1 0.87247 0.600171 0.0774727
238 1 0.988553 0.604396 0.0802277
737 1 0.314609 0.641167 0.0854144
29 1 0.106602 0.663181 0.0896764
961 1 0.690468 0.689479 0.0779636
661 1 0.00373233 0.729344 0.0772666
998 1 0.69053 0.74535 0.104038
549 1 0.738128 0.721073 0.0749535
936 1 0.0270579 0.761415 0.0999478
955 1 0.418145 0.766947 0.0810025
218 1 0.886822 0.815916 0.0920544
281 1 0.597063 0.843345 0.10043
377 1 0.253102 0.879937 0.102913
717 1 0.609084 0.873272 0.0897091
739 1 0.594389 0.896358 0.0839061
578 1 0.65068 0.972754 0.0732805
412 1 0.387815 0.00851632 0.133869
500 1 0.673946 0.00542125 0.115029
529 1 0.725532 0.0241631 0.108978
952 1 0.0180907 0.0507595 0.115064
405 1 0.31148 0.03999 0.112086
725 1 0.595767 0.0633734 0.115958
208 1 0.836023 0.0395157 0.140248
923 1 0.86488 0.0388595 0.112315
890 1 0.325287 0.102584 0.131914
828 1 0.891065 0.134238 0.131079
26 1 0.0521911 0.176125 0.128451
779 1 0.142631 0.195045 0.12321
192 1 0.272286 0.316662 0.13063
964 1 0.0868323 0.389666 0.109874
567 1 0.160848 0.373364 0.128291
793 1 0.404437 0.367057 0.132728
419 1 0.490354 0.381515 0.127821
798 1 0.573595 0.417273 0.115272
673 1 0.00817913 0.466717 0.109032
864 1 0.78149 0.497896 0.141955
837 1 0.458887 0.516757 0.1354
729 1 0.655828 0.50319 0.111119
870 1 0.436697 0.561203 0.130571
891 1 0.08173 0.636646 0.115145
359 1 0.235831 0.617965 0.129898
239 1 0.386901 0.641526 0.133766
77 1 0.926376 0.608147 0.130562
296 1 0.64483 0.662826 0.115895
111 1 0.788881 0.717387 0.129264
515 1 0.81881 0.732321 0.119698
48 1 0.924836 0.725835 0.115216
720 1 0.907226 0.745886 0.108033
110 1 0.938106 0.745827 0.111548
788 1 0.181101 0.756477 0.117252
305 1 0.968927 0.762666 0.127344
109 1 0.059606 0.797531 0.107333
384 1 0.355442 0.911593 0.142821
633 1 0.885876 0.912663 0.122707
392 1 0.896228 0.906117 0.109681
149 1 0.585587 0.95925 0.118073
487 1 0.0976359 0.966152 0.112082
651 1 0.912478 0.0229173 0.170975
941 1 0.178619 0.0518923 0.154053
714 1 0.664964 0.0522502 0.168704
353 1 0.560964 0.12948 0.177829
59 1 0.874703 0.140189 0.152845
344 1 0.696385 0.150423 0.166314
455 1 0.0582031 0.218966 0.160691
162 1 0.861678 0.215337 0.172621
753 1 0.89351 0.222833 0.149586
123 1 0.990972 0.268113 0.175292
906 1 0.538067 0.300064 0.170803
926 1 0.761546 0.305239 0.145628
509 1 0.33667 0.408233 0.178545
959 1 0.471792 0.405258 0.166989
700 1 0.983722 0.41091 0.159342
256 1 0.244449 0.450774 0.158215
482 1 0.769767 0.471242 0.156031
468 1 0.590022 0.505394 0.155523
735 1 0.727766 0.556683 0.171149
269 1 0.561649 0.630878 0.165151
6 1 0.0149131 0.64367 0.169539
307 1 0.150393 0.659854 0.160853
710 1 0.479245 0.667886 0.168391
489 1 0.993435 0.661162 0.145296
856 1 0.118923 0.744224 0.172809
568 1 0.188656 0.744461 0.150202
325 1 0.457115 0.73149 0.145872
390 1 0.752586 0.716675 0.150239
58 1 0.0230145 0.804792 0.144754
360 1 0.195085 0.795393 0.168684
556 1 0.766514 0.809077 0.153111
858 1 0.141361 0.852333 0.154961
197 1 0.574632 0.834663 0.17434
492 1 0.271848 0.953363 0.170335
134 1 0.524242 0.942118 0.177926
426 1 0.161836 0.977875 0.146531
254 1 0.197059 0.977876 0.160525
621 1 0.35914 0.0648062 0.197352
67 1 0.994291 0.047492 0.19747
183 1 0.481712 0.1321 0.211503
3 1 0.800685 0.116928 0.210908
458 1 0.829126 0.116571 0.205242
531 1 0.911654 0.174462 0.18483
445 1 0.703408 0.178748 0.213246
474 1 0.35558 0.235211 0.18597
122 1 0.84972 0.241398 0.182483
313 1 0.945158 0.269662 0.210461
956 1 0.409729 0.311787 0.210528
566 1 0.134014 0.378366 0.194274
917 1 0.65957 0.392348 0.190019
791 1 0.705443 0.384435 0.192433
853 1 0.987412 0.428226 0.191719
976 1 0.51969 0.435664 0.212991
782 1 0.832893 0.429417 0.213842
171 1 0.552537 0.490284 0.196266
895 1 0.821412 0.477789 0.191911
803 1 0.0300196 0.538775 0.187012
121 1 0.771021 0.546331 0.189614
622 1 0.888829 0.544131 0.213862
1 1 0.983015 0.540084 0.193807
569 1 0.438364 0.576497 0.191621
118 1 0.657082 0.573701 0.195096
283 1 0.681834 0.588398 0.197345
695 1 0.134029 0.633498 0.19463
231 1 0.309431 0.607675 0.193168
815 1 0.647029 0.624217 0.207976
872 1 0.227623 0.664972 0.183475
495 1 0.330317 0.644089 0.208576
763 1 0.314138 0.719057 0.195509
441 1 0.561416 0.715666 0.202792
992 1 0.692612 0.722569 0.209918
544 1 0.96018 0.737323 0.182292
337 1 0.981479 0.72126 0.212999
53 1 0.534525 0.76618 0.183209
22 1 0.995648 0.858165 0.18249
590 1 0.343661 0.909929 0.179251
398 1 0.504547 0.927482 0.182884
767 1 0.52198 0.918439 0.198785
764 1 0.917412 0.950508 0.182655
910 1 0.715892 0.996085 0.195559
597 1 0.156304 0.00495192 0.226863
920 1 0.935624 0.0319048 0.223768
135 1 0.404181 0.0677823 0.216492
640 1 0.883741 0.0377365 0.237914
484 1 0.906293 0.0671875 0.220903
273 1 0.418282 0.0718286 0.222686
450 1 0.878745 0.0718296 0.239419
152 1 0.977811 0.0773632 0.243108
845 1 0.560251 0.133112 0.214635
608 1 0.905702 0.127104 0.233089
993 1 0.0843189 0.147096 0.239118
148 1 0.425131 0.177974 0.216433
838 1 0.669492 0.15257 0.243199
358 1 0.0733135 0.17982 0.227122
18 1 0.0253603 0.230871 0.248615
374 1 0.663489 0.266569 0.228233
929 1 0.465604 0.409903 0.241096
871 1 0.504337 0.398478 0.215757
741 1 0.914527 0.46363 0.22994
715 1 0.408432 0.513134 0.245355
742 1 0.604423 0.530745 0.228137
660 1 0.755375 0.587626 0.23276
953 1 0.87717 0.601014 0.240094
195 1 0.126413 0.630763 0.235145
887 1 0.0655482 0.667771 0.227389
889 1 0.379347 0.692166 0.2398
274 1 0.688326 0.692939 0.22748
64 1 0.566417 0.763147 0.219653
974 1 0.548566 0.751546 0.230899
574 1 0.884618 0.773084 0.21775
800 1 0.460274 0.818958 0.219666
918 1 0.649841 0.873996 0.245595
749 1 0.321766 0.928971 0.223321
35 1 0.687099 0.0710587 0.284133
619 1 0.0819364 0.104378 0.272929
61 1 0.392878 0.101937 0.255351
312 1 0.712743 0.0781985 0.282558
204 1 0.925692 0.100035 0.283818
980 1 0.188857 0.12431 0.270162
164 1 0.944376 0.130972 0.254784
140 1 0.386693 0.150668 0.281818
479 1 0.708703 0.178215 0.266336
253 1 0.482908 0.230217 0.251455
652 1 0.579176 0.218853 0.255949
522 1 0.720071 0.229265 0.257181
801 1 0.933374 0.220758 0.284801
882 1 0.404669 0.265262 0.263473
626 1 0.432813 0.281089 0.257393
467 1 0.892085 0.271748 0.267305
642 1 0.652543 0.289657 0.271024
752 1 0.000734664 0.347491 0.274522
98 1 0.300728 0.339815 0.264479
615 1 0.37165 0.324881 0.27234
732 1 0.739593 0.336006 0.255501
397 1 0.0620204 0.376168 0.255102
279 1 0.821703 0.365458 0.250597
462 1 0.14306 0.4058 0.280475
310 1 0.347141 0.404847 0.262394
848 1 0.541704 0.42472 0.26614
99 1 0.0999267 0.468453 0.284657
687 1 0.490125 0.523726 0.258214
385 1 0.399748 0.559009 0.27198
38 1 0.908642 0.552167 0.278158
983 1 0.0579271 0.580191 0.266743
78 1 0.35501 0.65748 0.26621
513 1 0.236434 0.740481 0.263553
383 1 0.384527 0.746312 0.26027
496 1 0.534405 0.738101 0.270016
927 1 0.572007 0.714836 0.255107
214 1 0.612823 0.72394 0.265767
318 1 0.612112 0.772253 0.251805
678 1 0.989514 0.768447 0.283289
829 1 0.0375374 0.890419 0.277021
823 1 0.312005 0.860848 0.275431
897 1 0.738732 0.868939 0.259505
347 1 0.702622 0.976156 0.251529
403 1 0.761824 0.968542 0.279004
234 1 0.959779 0.999421 0.27511
55 1 0.195932 0.0348848 0.308876
989 1 0.549535 0.0420239 0.29539
270 1 0.69174 0.0658842 0.31639
944 1 0.606659 0.113127 0.317557
631 1 0.444824 0.163403 0.312449
40 1 0.529907 0.142935 0.302056
909 1 0.602675 0.166317 0.288553
345 1 0.234199 0.185953 0.317122
106 1 0.249791 0.238787 0.30115
970 1 0.264665 0.232243 0.31125
580 1 0.42912 0.226472 0.315917
880 1 0.670032 0.229804 0.321408
294 1 0.535567 0.274903 0.288264
727 1 0.0380386 0.314113 0.292231
967 1 0.763927 0.317505 0.298283
774 1 0.14841 0.333866 0.292129
986 1 0.377126 0.355525 0.305391
505 1 0.446799 0.34904 0.314019
332 1 0.241826 0.37159 0.314716
707 1 0.758217 0.357428 0.298712
721 1 0.706218 0.409431 0.298661
37 1 0.462452 0.429007 0.317362
174 1 0.491072 0.440072 0.29028
355 1 0.722227 0.470238 0.295864
577 1 0.143602 0.522479 0.309136
535 1 0.115522 0.581503 0.320427
745 1 0.296164 0.624937 0.316708
946 1 0.946311 0.644927 0.288762
236 1 0.0861364 0.694252 0.300784
586 1 0.0719181 0.726977 0.303509
612 1 0.486153 0.766901 0.309017
588 1 0.46313 0.828481 0.288069
525 1 0.833333 0.823246 0.303047
237 1 0.280114 0.872036 0.301362
809 1 0.259948 0.950872 0.308151
886 1 0.393225 0.939806 0.316896
84 1 0.450053 0.0348873 0.350286
66 1 0.818533 0.0793332 0.353126
723 1 0.135487 0.134369 0.343452
130 1 0.196889 0.117471 0.335101
302 1 0.744876 0.130204 0.335484
596 1 0.0301745 0.143531 0.330586
420 1 0.280963 0.147161 0.333104
718 1 0.740654 0.171973 0.350092
158 1 0.222245 0.265445 0.335464
965 1 0.649389 0.283177 0.350261
480 1 0.31328 0.289721 0.343189
7 1 0.447749 0.311319 0.341364
655 1 0.128658 0.3538 0.321693
618 1 0.186372 0.34809 0.341589
443 1 0.270086 0.334226 0.333436
644 1 0.854845 0.37647 0.325877
810 1 0.0871317 0.423297 0.348309
744 1 0.55438 0.456973 0.341066
973 1 0.614 0.499634 0.343461
399 1 0.734665 0.513258 0.324031
24 1 0.910783 0.528312 0.341165
416 1 0.172522 0.582515 0.334554
990 1 0.613653 0.664684 0.345511
832 1 0.90377 0.655224 0.346261
229 1 0.700047 0.695504 0.340092
435 1 0.791141 0.709785 0.351867
508 1 0.0588312 0.776065 0.324647
221 1 0.376139 0.774399 0.322062
159 1 0.137671 0.83497 0.333357
922 1 0.598967 0.840861 0.350382
454 1 0.55964 0.873822 0.326594
635 1 0.375671 0.894826 0.340035
611 1 0.0356965 0.951647 0.327512
497 1 0.157609 0.942367 0.357019
949 1 0.572319 0.960155 0.327636
945 1 0.17558 0.976459 0.340986
478 1 0.446184 0.0144211 0.374767
507 1 0.0723564 0.0938524 0.376573
471 1 0.205516 0.107121 0.380692
202 1 0.56227 0.0765373 0.362541
866 1 0.113531 0.107895 0.385942
985 1 0.178269 0.16424 0.380638
30 1 0.190585 0.170071 0.385627
498 1 0.426142 0.175307 0.379335
210 1 0.960799 0.156208 0.388908
146 1 0.276266 0.209101 0.366619
191 1 0.315833 0.204224 0.390746
966 1 0.838234 0.197082 0.358527
921 1 0.870007 0.206246 0.375236
215 1 0.753628 0.222251 0.377104
243 1 0.839547 0.266042 0.375827
15 1 0.919692 0.268185 0.378808
240 1 0.198333 0.387778 0.380685
740 1 0.209223 0.409912 0.38543
587 1 0.0807076 0.452037 0.38451
679 1 0.2382 0.435792 0.357745
127 1 0.668796 0.460068 0.366167
555 1 0.778512 0.450668 0.36888
31 1 0.227672 0.487022 0.38659
265 1 0.619115 0.473098 0.363068
541 1 0.593296 0.522305 0.371767
691 1 0.141106 0.566394 0.379115
892 1 0.248444 0.59995 0.359806
10 1 0.722652 0.606674 0.370293
378 1 0.658215 0.623929 0.377517
571 1 0.187881 0.714307 0.360571
554 1 0.629305 0.731503 0.36537
133 1 0.831185 0.734598 0.384335
603 1 0.934179 0.743879 0.376632
533 1 0.989098 0.765239 0.376627
120 1 0.867781 0.791122 0.379888
414 1 0.126308 0.864305 0.367134
649 1 0.112149 0.892567 0.371124
317 1 0.145766 0.885724 0.362683
491 1 0.288146 0.864305 0.370993
49 1 0.440165 0.858951 0.382217
857 1 0.408278 0.929337 0.359977
521 1 0.793893 0.953077 0.366854
777 1 0.808589 0.960217 0.371595
607 1 0.72065 0.971819 0.36276
790 1 0.928124 0.980268 0.371792
331 1 0.99161 0.995561 0.390744
194 1 0.340993 0.0675569 0.428341
950 1 0.573696 0.104208 0.427817
680 1 0.612551 0.139073 0.404104
339 1 0.736071 0.139133 0.416601
407 1 0.742853 0.136932 0.423404
881 1 0.905641 0.110811 0.39361
563 1 0.487843 0.173405 0.417946
145 1 0.598392 0.17632 0.413475
613 1 0.653844 0.158411 0.420165
465 1 0.462743 0.316856 0.401418
21 1 0.570439 0.361064 0.403403
834 1 0.805638 0.364515 0.408132
216 1 0.985087 0.358803 0.396402
836 1 0.77887 0.462094 0.412415
380 1 0.174895 0.467806 0.418135
396 1 0.512019 0.501482 0.415188
409 1 0.608948 0.584067 0.418215
205 1 0.132306 0.661296 0.402836
532 1 0.43016 0.697769 0.40727
20 1 0.562961 0.680812 0.414088
461 1 0.349183 0.715798 0.424832
851 1 0.348232 0.740668 0.412438
51 1 0.683152 0.742157 0.426579
550 1 0.743901 0.740073 0.400336
911 1 0.752705 0.715561 0.427482
562 1 0.865874 0.742155 0.400517
34 1 0.0327111 0.774939 0.39327
176 1 0.0288462 0.8176 0.40155
592 1 0.0184332 0.805998 0.400642
570 1 0.582483 0.786661 0.417099
444 1 0.0611583 0.886976 0.401779
743 1 0.306293 0.86996 0.411588
724 1 0.402565 0.914108 0.413613
874 1 0.153625 0.971108 0.403966
957 1 0.34105 0.02228 0.460041
324 1 0.474268 0.0210293 0.439368
689 1 0.672876 0.0284076 0.44642
713 1 0.205988 0.0456029 0.447651
8 1 0.304281 0.0501832 0.429196
233 1 0.109664 0.124737 0.45106
308 1 0.454343 0.149785 0.436925
822 1 0.629271 0.154903 0.450367
100 1 0.228786 0.211486 0.440118
902 1 0.321845 0.244686 0.435499
830 1 0.887561 0.242664 0.449757
821 1 0.768743 0.255217 0.432714
697 1 0.0391713 0.351905 0.461107
939 1 0.501539 0.362257 0.449764
185 1 0.750958 0.357378 0.455053
699 1 0.0367957 0.425979 0.43333
32 1 0.42342 0.418126 0.439445
995 1 0.855681 0.433537 0.451766
958 1 0.908457 0.443056 0.444902
304 1 0.0697023 0.487382 0.437673
79 1 0.183106 0.466082 0.4422
705 1 0.179484 0.595016 0.434274
538 1 0.217983 0.639343 0.441383
624 1 0.382913 0.621673 0.462585
382 1 0.396301 0.638093 0.433295
143 1 0.392852 0.670461 0.445552
460 1 0.0884592 0.733888 0.46328
797 1 0.370128 0.734422 0.432651
54 1 0.187171 0.785653 0.462319
601 1 0.45236 0.80719 0.445014
223 1 0.821074 0.796658 0.437649
169 1 0.716125 0.919287 0.457999
692 1 0.791927 0.90923 0.435393
203 1 0.22514 0.930709 0.428984
900 1 0.283687 0.934458 0.430403
422 1 0.125661 0.98652 0.44231
411 1 0.650503 0.996339 0.463223
849 1 0.0134475 0.0121063 0.471192
262 1 0.111752 0.211845 0.479023
759 1 0.437211 0.199291 0.491949
437 1 0.80902 0.207146 0.496518
362 1 0.29852 0.228565 0.48683
846 1 0.362066 0.248199 0.48706
107 1 0.422757 0.278127 0.472566
996 1 0.830205 0.256529 0.4906
914 1 0.425378 0.328165 0.469343
584 1 0.517901 0.366542 0.479424
74 1 0.825335 0.409917 0.478219
410 1 0.939517 0.467036 0.465916
676 1 0.119509 0.582941 0.483191
805 1 0.326685 0.597994 0.489556
620 1 0.121418 0.676353 0.465661
12 1 0.53964 0.726214 0.483971
96 1 0.603542 0.734782 0.488133
95 1 0.608361 0.718123 0.487868
41 1 0.659947 0.724014 0.496769
506 1 0.713793 0.714969 0.477365
817 1 0.712128 0.734485 0.496396
583 1 0.9531 0.744242 0.472215
261 1 0.234294 0.77905 0.491588
275 1 0.259342 0.755844 0.476888
247 1 0.458366 0.765483 0.47453
824 1 0.167421 0.844022 0.47396
654 1 0.470151 0.833788 0.482366
899 1 0.405065 0.927201 0.464883
769 1 0.94817 0.895549 0.492978
108 1 0.424345 0.962187 0.482005
27 1 0.868147 0.942374 0.477546
878 1 0.875765 0.982714 0.476102
963 1 0.188493 0.0017565 0.521574
393 1 0.406142 0.0237701 0.504743
811 1 0.0352281 0.0779749 0.524977
623 1 0.385797 0.09624 0.506359
379 1 0.935748 0.120755 0.527886
119 1 0.976151 0.165439 0.533163
954 1 0.25907 0.181919 0.505053
581 1 0.625226 0.180788 0.508216
534 1 0.972583 0.207444 0.512829
71 1 0.249493 0.226068 0.531684
180 1 0.306671 0.217677 0.502341
352 1 0.468508 0.216785 0.510892
252 1 0.244199 0.258376 0.522014
207 1 0.596079 0.298479 0.531673
915 1 0.242656 0.327157 0.52703
438 1 0.970212 0.350242 0.51837
104 1 0.0466095 0.366187 0.505416
113 1 0.364277 0.398792 0.50517
440 1 0.120511 0.436338 0.534632
511 1 0.261108 0.449606 0.526597
758 1 0.259025 0.437052 0.527604
501 1 0.295679 0.474893 0.52026
799 1 0.37166 0.486495 0.527665
101 1 0.0670864 0.52035 0.530678
736 1 0.504642 0.517909 0.502964
493 1 0.82677 0.529394 0.52755
643 1 0.0980283 0.562474 0.500676
434 1 0.0215143 0.591392 0.532623
142 1 0.0549528 0.591331 0.502493
125 1 0.449432 0.605671 0.513789
368 1 0.617873 0.598293 0.513021
564 1 0.419625 0.632089 0.524637
386 1 0.161103 0.664993 0.532108
551 1 0.450092 0.701702 0.501373
879 1 0.851829 0.693552 0.527499
271 1 0.573679 0.826889 0.517832
160 1 0.731411 0.827544 0.523906
1000 1 0.410239 0.885019 0.518256
488 1 0.754323 0.90983 0.516868
971 1 0.180338 0.936486 0.511846
94 1 0.759382 0.938151 0.507027
235 1 0.775209 0.938747 0.519075
852 1 0.848633 0.967069 0.52484
137 1 0.207891 0.0278182 0.541226
576 1 0.0672961 0.0462629 0.540379
747 1 0.731602 0.0377558 0.562309
733 1 0.199685 0.112189 0.556204
115 1 0.736367 0.114153 0.568542
731 1 0.874226 0.111297 0.561358
987 1 0.707512 0.151577 0.561004
245 1 0.959848 0.159133 0.544557
263 1 0.939796 0.143009 0.558971
14 1 0.45762 0.21399 0.536022
561 1 0.89922 0.18323 0.542207
773 1 0.472616 0.252547 0.554004
839 1 0.451616 0.304252 0.566944
433 1 0.720373 0.314128 0.541978
775 1 0.806348 0.293483 0.567895
666 1 0.79451 0.321506 0.549351
97 1 0.0433398 0.412005 0.564545
546 1 0.0857075 0.486378 0.549425
728 1 0.519157 0.469956 0.548263
289 1 0.199117 0.567117 0.543633
418 1 0.263793 0.571818 0.54266
244 1 0.519164 0.591155 0.54245
354 1 0.778401 0.591513 0.567307
151 1 0.323594 0.63941 0.557861
328 1 0.897583 0.682902 0.536078
968 1 0.248097 0.762394 0.559773
89 1 0.781747 0.822904 0.554438
68 1 0.875459 0.833198 0.557638
200 1 0.102153 0.893352 0.570703
999 1 0.558631 0.91001 0.540037
371 1 0.280535 0.956481 0.570265
287 1 0.12584 0.99212 0.556779
703 1 0.18391 0.967547 0.56897
220 1 0.412922 0.978375 0.554494
466 1 0.634145 0.0709584 0.597542
211 1 0.383603 0.208996 0.603283
369 1 0.34505 0.255167 0.589814
190 1 0.146565 0.318176 0.589238
276 1 0.0585691 0.370297 0.573727
219 1 0.157873 0.375058 0.59793
806 1 0.974201 0.400641 0.581537
807 1 0.899413 0.442529 0.585617
28 1 0.10808 0.497268 0.591367
896 1 0.441273 0.47091 0.58004
540 1 0.46781 0.486678 0.594787
311 1 0.0540556 0.513095 0.589083
668 1 0.105998 0.509704 0.592531
942 1 0.171328 0.511369 0.57382
694 1 0.140334 0.598953 0.601781
616 1 0.21037 0.693733 0.576214
464 1 0.294977 0.684632 0.604716
499 1 0.491146 0.691712 0.602587
934 1 0.717301 0.685464 0.585742
114 1 0.384051 0.743951 0.581885
750 1 0.361678 0.7192 0.586519
827 1 0.699998 0.865745 0.572255
334 1 0.243347 0.926079 0.606729
91 1 0.339079 0.903707 0.605778
87 1 0.896231 0.962076 0.604866
9 1 0.499791 0.987897 0.588726
943 1 0.200039 0.0636417 0.625668
991 1 0.000603659 0.14569 0.617046
658 1 0.367833 0.169729 0.640829
512 1 0.520928 0.241723 0.635107
46 1 0.970566 0.302172 0.61164
757 1 0.245454 0.341621 0.617972
33 1 0.75072 0.349416 0.638367
688 1 0.794336 0.406833 0.640904
314 1 0.218686 0.451158 0.611996
222 1 0.892987 0.433131 0.638176
931 1 0.31103 0.485431 0.631325
656 1 0.686708 0.493285 0.640096
602 1 0.354887 0.580925 0.607957
771 1 0.771796 0.574857 0.619385
711 1 0.154199 0.619064 0.612299
575 1 0.719498 0.608654 0.641879
260 1 0.128973 0.643518 0.608094
248 1 0.421531 0.665356 0.639204
840 1 0.628467 0.649172 0.635502
408 1 0.158963 0.697128 0.636081
356 1 0.58272 0.781318 0.619545
316 1 0.89747 0.773941 0.628021
485 1 0.718974 0.803096 0.634911
47 1 0.828394 0.818386 0.618785
102 1 0.100663 0.840996 0.611639
593 1 0.584926 0.855276 0.619634
299 1 0.452546 0.943811 0.633595
381 1 0.586839 0.001884 0.664449
683 1 0.865177 0.0257438 0.675542
335 1 0.301662 0.0406775 0.666625
340 1 0.820616 0.0865499 0.643348
627 1 0.998458 0.0915481 0.648442
795 1 0.495635 0.140933 0.653873
813 1 0.0781939 0.204536 0.644948
266 1 0.0846215 0.233038 0.67613
268 1 0.826039 0.23625 0.651429
772 1 0.00715663 0.281411 0.671534
628 1 0.363379 0.31003 0.673435
117 1 0.416989 0.329901 0.643402
933 1 0.00906647 0.380239 0.678153
937 1 0.822299 0.371134 0.656613
486 1 0.94082 0.361734 0.662825
884 1 0.000916621 0.405644 0.665239
636 1 0.965812 0.397611 0.649084
394 1 0.223565 0.453898 0.671713
132 1 0.384152 0.443306 0.6449
199 1 0.655467 0.436227 0.675439
280 1 0.787853 0.440748 0.645778
748 1 0.729546 0.48097 0.666408
940 1 0.176207 0.507566 0.667947
670 1 0.278963 0.530534 0.677079
429 1 0.309366 0.516311 0.643225
168 1 0.483997 0.5297 0.671549
768 1 0.973197 0.514945 0.673645
69 1 0.217985 0.66625 0.668299
693 1 0.643941 0.710219 0.64706
230 1 0.92293 0.679874 0.646356
425 1 0.249284 0.71962 0.656462
756 1 0.783051 0.745324 0.658193
802 1 0.657152 0.756391 0.659489
776 1 0.615807 0.860515 0.674231
560 1 0.0472362 0.898891 0.666086
278 1 0.143031 0.91799 0.661678
938 1 0.70125 0.912456 0.649819
785 1 0.93544 0.946312 0.661566
131 1 0.0414771 0.105651 0.67974
187 1 0.876009 0.0894683 0.694288
448 1 0.942473 0.139984 0.707348
442 1 0.328864 0.209538 0.71097
13 1 0.104494 0.223519 0.678971
70 1 0.0942038 0.283674 0.70365
389 1 0.163105 0.309615 0.698801
320 1 0.31685 0.290158 0.692949
712 1 0.916364 0.322049 0.680979
150 1 0.456201 0.366793 0.68634
446 1 0.0242401 0.403921 0.707751
579 1 0.625478 0.405588 0.71086
792 1 0.221661 0.452352 0.6798
888 1 0.730437 0.454317 0.710381
719 1 0.993544 0.499537 0.714042
657 1 0.10106 0.508459 0.678727
227 1 0.138246 0.506319 0.708139
128 1 0.16752 0.51096 0.707457
781 1 0.219287 0.550884 0.707612
526 1 0.317341 0.543088 0.685159
859 1 0.42331 0.563675 0.692082
285 1 0.399991 0.641025 0.699217
786 1 0.9381 0.639834 0.695283
258 1 0.378155 0.649711 0.696598
873 1 0.662798 0.642869 0.699896
903 1 0.439208 0.768828 0.685103
375 1 0.911333 0.77109 0.706669
23 1 0.102686 0.838501 0.685661
198 1 0.126072 0.888838 0.695345
675 1 0.327893 0.890087 0.693587
50 1 0.921572 0.862361 0.69731
376 1 0.982085 0.894788 0.709957
264 1 0.628722 0.938758 0.707956
516 1 0.75968 0.934474 0.704827
804 1 0.104182 0.985345 0.700442
213 1 0.237171 0.14058 0.735087
490 1 0.995069 0.123148 0.747801
528 1 0.666816 0.169973 0.729739
73 1 0.0361343 0.308903 0.740633
85 1 0.252413 0.308368 0.747783
232 1 0.571804 0.318184 0.723515
52 1 0.508677 0.339128 0.722885
298 1 0.855795 0.348649 0.748525
527 1 0.464769 0.36733 0.723191
277 1 0.632199 0.361619 0.722684
645 1 0.0213254 0.41618 0.731209
770 1 0.473996 0.454022 0.746937
423 1 0.898058 0.66673 0.732981
650 1 0.488112 0.692671 0.729869
617 1 0.426177 0.749433 0.728398
997 1 0.5206 0.728609 0.73408
439 1 0.247681 0.769009 0.733035
19 1 0.467766 0.751516 0.724196
424 1 0.207996 0.78793 0.732091
979 1 0.212935 0.79495 0.720782
387 1 0.145108 0.837552 0.728673
161 1 0.294093 0.828508 0.733734
632 1 0.33604 0.831482 0.723204
789 1 0.653052 0.852903 0.736534
327 1 0.776574 0.879737 0.739805
80 1 0.0515204 0.904071 0.724473
157 1 0.446714 0.929775 0.725366
475 1 0.597486 0.948577 0.733698
819 1 0.0290344 0.981183 0.737811
898 1 0.494792 0.967378 0.719546
336 1 0.961443 0.971961 0.745224
182 1 0.0855005 0.00772088 0.764889
476 1 0.267687 0.0233683 0.751088
969 1 0.101449 0.0587706 0.756665
329 1 0.862324 0.0740019 0.750629
843 1 0.425369 0.175746 0.770919
634 1 0.342725 0.179138 0.776604
609 1 0.533782 0.278143 0.753087
778 1 0.399256 0.298136 0.768914
994 1 0.857817 0.331574 0.767648
272 1 0.201846 0.420406 0.767562
893 1 0.265984 0.39512 0.782007
835 1 0.472506 0.412137 0.785433
303 1 0.472334 0.522328 0.772539
16 1 0.625247 0.528396 0.759076
519 1 0.15164 0.618002 0.756806
173 1 0.464368 0.636864 0.776908
11 1 0.517737 0.610862 0.761144
228 1 0.696655 0.682916 0.777099
206 1 0.464672 0.745151 0.754305
738 1 0.559514 0.749495 0.761682
282 1 0.93109 0.831901 0.752465
175 1 0.737188 0.924423 0.781819
5 1 0.954062 0.911987 0.761112
297 1 0.843811 0.939298 0.785081
816 1 0.453204 0.99243 0.765259
494 1 0.531801 0.987195 0.77904
589 1 0.57387 0.0258701 0.799509
364 1 0.741954 0.0153383 0.790648
672 1 0.0757485 0.10536 0.787351
366 1 0.120431 0.0815623 0.817353
553 1 0.529193 0.140822 0.790125
172 1 0.650571 0.144154 0.795232
39 1 0.997692 0.215316 0.812491
932 1 0.683185 0.285643 0.805201
45 1 0.545088 0.297662 0.800379
421 1 0.472919 0.354721 0.800388
153 1 0.910831 0.328363 0.791558
637 1 0.150198 0.371143 0.798435
88 1 0.984195 0.372213 0.790491
820 1 0.394861 0.427846 0.808697
780 1 0.782674 0.398334 0.800453
755 1 0.994967 0.418682 0.79061
196 1 0.07857 0.526615 0.817908
930 1 0.0946386 0.590278 0.804207
600 1 0.0175324 0.667091 0.806298
825 1 0.854029 0.665485 0.800981
704 1 0.682972 0.712906 0.804913
333 1 0.426948 0.720224 0.803906
82 1 0.636624 0.736052 0.821062
25 1 0.964284 0.72064 0.790686
765 1 0.880335 0.783353 0.814956
975 1 0.713978 0.836187 0.799579
696 1 0.138746 0.909015 0.807464
181 1 0.851842 0.902172 0.798779
431 1 0.908008 0.89414 0.802887
630 1 0.781636 0.963813 0.805167
481 1 0.985777 0.957983 0.816848
293 1 0.0295699 0.981186 0.801127
473 1 0.63176 0.982792 0.791418
573 1 0.557328 0.0169474 0.834526
677 1 0.993337 0.0177807 0.840542
808 1 0.457907 0.0482447 0.849304
186 1 0.0742604 0.0939979 0.823221
854 1 0.226459 0.0882875 0.848658
841 1 0.875652 0.0876918 0.836846
960 1 0.584587 0.151653 0.825768
451 1 0.916117 0.177118 0.821462
638 1 0.297509 0.2365 0.848859
951 1 0.320832 0.229181 0.841853
629 1 0.414784 0.26726 0.846956
686 1 0.638381 0.271603 0.834384
664 1 0.963424 0.266964 0.855845
690 1 0.982703 0.294867 0.831269
292 1 0.890898 0.323248 0.835249
524 1 0.0371511 0.399229 0.835535
370 1 0.00948781 0.461702 0.831158
459 1 0.504817 0.452837 0.831207
514 1 0.540338 0.454921 0.854812
322 1 0.547955 0.481041 0.849207
530 1 0.596863 0.471401 0.833635
981 1 0.619175 0.470569 0.854167
862 1 0.0830323 0.524058 0.850373
962 1 0.333403 0.503412 0.846504
373 1 0.680283 0.522213 0.833204
972 1 0.599426 0.545655 0.830524
682 1 0.657675 0.540598 0.831372
908 1 0.160146 0.573977 0.839686
901 1 0.782625 0.582725 0.852938
988 1 0.78929 0.602597 0.840694
402 1 0.53059 0.618067 0.848561
179 1 0.756807 0.657813 0.857102
338 1 0.872359 0.738849 0.839932
665 1 0.188004 0.78169 0.856536
784 1 0.495791 0.76592 0.82263
685 1 0.102447 0.818698 0.852302
706 1 0.848743 0.818162 0.842492
833 1 0.605809 0.828038 0.838211
86 1 0.987558 0.892476 0.837383
72 1 0.0143391 0.996481 0.851909
36 1 0.416968 0.974286 0.829384
559 1 0.432498 0.997789 0.831978
701 1 0.0681921 0.104056 0.877086
257 1 0.11948 0.0982849 0.874123
572 1 0.11502 0.137258 0.886985
610 1 0.133285 0.123751 0.878684
702 1 0.18261 0.120598 0.884107
350 1 0.7015 0.110184 0.863254
844 1 0.829007 0.115838 0.885081
594 1 0.181124 0.146121 0.857572
166 1 0.259188 0.174622 0.867443
363 1 0.159825 0.182595 0.877417
982 1 0.982935 0.192352 0.860538
787 1 0.626002 0.218651 0.862568
868 1 0.671047 0.279816 0.865163
319 1 0.0880771 0.31254 0.865016
913 1 0.948253 0.289277 0.873828
875 1 0.455428 0.371921 0.869059
606 1 0.929456 0.362698 0.87212
978 1 0.177689 0.412678 0.875065
165 1 0.160734 0.451889 0.891311
542 1 0.282647 0.450044 0.881717
523 1 0.443236 0.472831 0.863571
290 1 0.8445 0.505913 0.876791
351 1 0.705335 0.571065 0.88692
722 1 0.601097 0.641155 0.890827
330 1 0.823086 0.612772 0.860355
907 1 0.68702 0.744622 0.865185
449 1 0.401783 0.75914 0.859337
395 1 0.474968 0.778834 0.867705
139 1 0.335627 0.878912 0.866031
647 1 0.547265 0.879865 0.886625
598 1 0.885161 0.893074 0.886895
62 1 0.6768 0.985416 0.891357
912 1 0.691615 0.965068 0.890995
116 1 0.478197 0.0505102 0.924223
883 1 0.188145 0.145112 0.900875
144 1 0.399783 0.144993 0.900791
154 1 0.718345 0.230376 0.92153
585 1 0.684795 0.354965 0.893799
919 1 0.707047 0.335985 0.900395
57 1 0.116105 0.379421 0.924319
766 1 0.970454 0.415775 0.927026
184 1 0.729663 0.439096 0.89485
44 1 0.275985 0.4745 0.923993
259 1 0.722942 0.483543 0.906832
17 1 0.7969 0.492467 0.893736
129 1 0.231603 0.557083 0.894877
342 1 0.593598 0.601767 0.89549
663 1 0.686236 0.573625 0.921519