ITEM: TIMESTEP
0
ITEM: NUMBER OF ATOMS
1545
ITEM: BOX BOUNDS pp pp pp
-2.0000000000000000e+01 2.0000000000000000e+01
-2.0000000000000000e+01 2.0000000000000000e+01
-2.0000000000000000e+01 2.0000000000000000e+01
ITEM: ATOMS id type xs ys zs
1363 1 0.035879 0.0177913 0.0183102
1212 1 0.611353 0.00267822 0.0128306
1001 1 0.527462 0.0601545 0.0161255
1532 2 0.636702 0.0530731 5.0751e-05
23 1 0.0623004 0.0831812 0.0270253
126 1 0.101333 0.101388 0.0243124
436 1 0.501522 0.0790753 0.0179752
497 1 0.368246 0.110193 0.00904333
412 1 0.424771 0.128817 0.0292212
1545 2 0.860259 0.110133 0.00906484
100 1 0.169225 0.169692 0.0162222
1015 1 0.568404 0.165051 0.00492214
279 1 0.812471 0.204439 0.0124769
1262 1 0.882562 0.211461 0.0314957
111 1 0.169527 0.242103 0.0243979
5 1 0.623861 0.234069 0.00182495
697 1 0.971275 0.226335 0.00720117
1407 1 0.812118 0.270424 0.00920444
1234 1 0.0156074 0.313264 0.0354659
18 1 0.342673 0.29702 0.0209641
763 1 0.635764 0.286132 0.0243598
408 1 0.862456 0.292558 0.0305096
1009 1 0.033101 0.329327 0.00239509
274 1 0.0889122 0.347654 0.0274084
456 1 0.0727282 0.342418 0.0150885
617 1 0.893516 0.329804 0.0080743
1480 1 0.0574388 0.37425 0.0274129
908 1 0.158291 0.39906 0.000495144
948 1 0.451502 0.399893 0.00310632
101 1 0.645708 0.407213 0.0218759
1201 1 0.776367 0.408046 0.0239001
417 1 0.343872 0.45493 0.0096172
739 1 0.598051 0.442793 0.0137215
1313 1 0.585199 0.444995 0.0347256
772 1 0.457695 0.476587 0.00123186
806 1 0.162227 0.548879 0.0103807
354 1 0.201258 0.546142 0.0125468
566 1 0.872586 0.548225 0.0167816
490 1 0.352388 0.592493 0.0322579
1281 1 0.46871 0.606355 0.0007856
1330 1 0.630307 0.573215 0.0308935
48 1 0.100651 0.63902 0.0159403
1349 1 0.557663 0.635451 0.0234076
135 1 0.666545 0.626288 0.0199169
47 1 0.085004 0.661869 0.0245196
1366 1 0.34573 0.677635 0.0185425
926 1 0.396242 0.646398 0.0170835
205 1 0.0949428 0.703934 0.0165265
1210 1 0.347517 0.713394 0.00651793
1320 1 0.744851 0.716846 0.035665
816 1 0.0425869 0.758613 0.00403508
750 1 0.242152 0.8481 0.0135067
726 1 0.261851 0.936218 0.0168415
390 1 0.656272 0.956507 0.0190521
211 1 0.92955 0.94663 0.0158356
81 1 0.133336 0.978938 0.012794
1332 1 0.199798 0.0125564 0.0357696
1531 2 0.610581 0.0354733 0.0540341
1018 1 0.70798 0.0132123 0.0584202
532 1 0.288217 0.0547425 0.0577959
1544 2 0.858437 0.0598287 0.0461111
1208 1 0.0574228 0.105376 0.0467012
40 1 0.0805664 0.0797313 0.0447816
36 1 0.554299 0.10377 0.0628827
74 1 0.650152 0.112396 0.038719
1362 1 0.864769 0.166659 0.0372485
1431 1 0.319046 0.205037 0.0559548
451 1 0.362479 0.188616 0.0660475
631 1 0.019292 0.240796 0.0663372
280 1 0.699127 0.235561 0.0656786
1479 1 0.683777 0.232168 0.0486141
326 1 0.580726 0.264775 0.0687555
50 1 0.366888 0.285776 0.0436676
62 1 0.80296 0.353547 0.0701896
592 1 0.41985 0.421257 0.0709173
462 1 0.460606 0.412628 0.0391459
1163 1 0.625239 0.398706 0.0463891
1003 1 0.780056 0.405905 0.0533356
383 1 0.082968 0.442556 0.0380433
467 1 0.479946 0.449875 0.0484935
1036 1 0.686409 0.469867 0.0584745
931 1 0.914409 0.466654 0.0479176
1412 1 0.629054 0.50866 0.047173
63 1 0.67713 0.52532 0.0462319
1255 1 0.679748 0.518656 0.0517331
1093 1 0.797558 0.553404 0.0658789
1218 1 0.0443621 0.594517 0.0430525
1364 1 0.738834 0.587735 0.0623855
109 1 0.80827 0.600587 0.0581323
742 1 0.991883 0.574644 0.0459824
275 1 0.6528 0.616888 0.0402394
1213 1 0.643936 0.629443 0.0455487
1011 1 0.261538 0.66425 0.0581436
737 1 0.398624 0.677518 0.0442704
840 1 0.575217 0.66657 0.0468456
1054 1 0.3521 0.74279 0.0633815
112 1 0.055918 0.813415 0.058253
1190 1 0.65061 0.800622 0.0533637
290 1 0.327115 0.823885 0.0409043
792 1 0.633417 0.839713 0.0537874
882 1 0.0897171 0.875471 0.0419115
869 1 0.94198 0.857682 0.053819
1416 1 0.147378 0.977632 0.0693373
433 1 0.331587 0.978404 0.0367781
1323 1 0.249957 0.022674 0.0816189
399 1 0.851789 0.0105369 0.0931896
1543 2 0.856616 0.00952457 0.0831575
10 1 0.894508 0.0026232 0.0881294
230 1 0.00821655 0.0956203 0.0910742
551 1 0.0214836 0.0743199 0.0940357
7 1 0.0927653 0.105616 0.093975
578 1 0.11579 0.0761634 0.0775438
525 1 0.241755 0.16928 0.0850878
131 1 0.74018 0.203493 0.0987916
386 1 0.898684 0.189925 0.0752379
560 1 0.333683 0.216225 0.0879277
1433 1 0.129844 0.280723 0.104066
874 1 0.375278 0.298214 0.0845426
289 1 0.670156 0.319515 0.0946824
1443 1 0.791475 0.316541 0.102528
324 1 0.860017 0.306544 0.0777914
960 1 0.426925 0.328499 0.0745336
709 1 0.751136 0.335163 0.0842234
373 1 0.787728 0.338139 0.0982292
642 1 0.986633 0.343671 0.0829232
819 1 0.2545 0.386273 0.0873074
1393 1 0.444481 0.386689 0.0871808
988 1 0.507906 0.378895 0.0918539
360 1 0.603226 0.427565 0.0832369
72 1 0.68938 0.417451 0.0924304
320 1 0.983067 0.413523 0.0740395
103 1 0.168409 0.441787 0.106627
1081 1 0.814095 0.494621 0.0974561
492 1 0.108676 0.519373 0.0952005
918 1 0.533559 0.524131 0.0745507
52 1 0.671477 0.5161 0.0986933
661 1 0.708247 0.514016 0.0727012
314 1 0.879252 0.58958 0.0757668
1008 1 0.30485 0.615165 0.0738998
1481 1 0.728247 0.641166 0.0755453
199 1 0.769597 0.616832 0.0885529
713 1 0.841412 0.618259 0.0720701
1039 1 0.581046 0.643964 0.0951509
1231 1 0.8407 0.645213 0.0914839
1326 1 0.86694 0.668775 0.0973082
892 1 0.00141047 0.705783 0.0933875
624 1 0.386428 0.696916 0.0727192
937 1 0.462409 0.700309 0.0969839
444 1 0.239231 0.748504 0.098896
1401 1 0.225961 0.724286 0.0721586
623 1 0.65602 0.724406 0.0916515
1108 1 0.761452 0.722324 0.101825
458 1 0.132075 0.782774 0.0896281
1162 1 0.950959 0.776229 0.0769694
1501 2 0.0119634 0.807421 0.0931517
670 1 0.468067 0.802349 0.0826899
254 1 0.54976 0.81413 0.0892922
258 1 0.27083 0.838823 0.0975175
876 1 0.0208172 0.875474 0.0945282
1085 1 0.0246241 0.857624 0.0832318
939 1 0.145772 0.985189 0.0764324
625 1 0.190931 0.969661 0.09585
1230 1 0.486642 0.99834 0.0984614
890 1 0.815016 0.973231 0.089494
541 1 0.0856193 0.00310068 0.113202
1530 2 0.584461 0.0178735 0.108017
480 1 0.618493 0.00673033 0.116691
694 1 0.771882 0.0179767 0.135217
1438 1 0.814364 0.0220818 0.129443
1116 1 0.214497 0.0471906 0.13276
1175 1 0.938719 0.04356 0.113204
516 1 0.0411793 0.100978 0.13112
430 1 0.264181 0.0868163 0.122098
253 1 0.63058 0.163451 0.12748
1103 1 0.22456 0.179217 0.107251
684 1 0.385981 0.188321 0.113388
1356 1 0.105268 0.236039 0.113965
389 1 0.881789 0.221285 0.136887
367 1 0.225933 0.261685 0.136577
537 1 0.369865 0.315709 0.11823
53 1 0.738341 0.305237 0.120412
113 1 0.0576162 0.355455 0.138597
1405 1 0.461614 0.341769 0.1133
826 1 0.71252 0.330941 0.121132
466 1 0.893043 0.368484 0.11385
962 1 0.956468 0.363547 0.129816
894 1 0.273898 0.401863 0.1094
719 1 0.824978 0.410669 0.107482
1321 1 0.421637 0.456961 0.138128
1319 1 0.592815 0.445358 0.138261
1236 1 0.807607 0.442681 0.132795
1095 1 0.515171 0.48421 0.118764
288 1 0.663269 0.566199 0.109697
468 1 0.0295483 0.617965 0.132379
1504 2 0.965934 0.631014 0.136946
358 1 0.0820876 0.645928 0.117326
1503 2 0.981277 0.689816 0.122348
1376 1 0.0904812 0.718042 0.133836
1502 2 0.99662 0.748619 0.10775
243 1 0.42957 0.791167 0.138114
415 1 0.545594 0.806279 0.132128
575 1 0.32569 0.876189 0.114485
588 1 0.430827 0.908261 0.135006
864 1 0.48616 0.894338 0.138822
217 1 0.475871 0.959964 0.108415
20 1 0.856961 0.951873 0.127981
1542 2 0.854794 0.95922 0.120204
875 1 0.907893 0.960917 0.127686
441 1 0.204318 0.971031 0.119393
1529 2 0.55834 0.000273708 0.162001
923 1 0.19873 0.0529643 0.170277
733 1 0.94015 0.100622 0.148675
610 1 0.832875 0.123649 0.163997
1329 1 0.836385 0.129182 0.167051
428 1 0.110558 0.143461 0.151129
714 1 0.282928 0.177437 0.178041
1226 1 0.351887 0.157741 0.154153
589 1 0.0526099 0.214206 0.167496
246 1 0.083607 0.183207 0.157744
648 1 0.172202 0.190883 0.163076
465 1 0.436496 0.180054 0.175337
147 1 0.477254 0.207066 0.166653
676 1 0.0734354 0.228426 0.163933
484 1 0.139538 0.22325 0.155728
310 1 0.383546 0.249311 0.176625
1293 1 0.672354 0.248536 0.146472
1000 1 0.534972 0.273883 0.147232
813 1 0.109556 0.30988 0.153367
981 1 0.333037 0.354742 0.156316
910 1 0.647726 0.329514 0.149292
878 1 0.299123 0.360395 0.150454
1283 1 0.126163 0.426618 0.160723
687 1 0.253313 0.423881 0.175678
576 1 0.15401 0.446074 0.167617
340 1 0.670522 0.455475 0.167502
769 1 0.730616 0.455237 0.165254
674 1 0.17198 0.465233 0.177483
862 1 0.34429 0.476835 0.160055
1119 1 0.654518 0.483379 0.151128
1423 1 0.855685 0.490818 0.176837
1434 1 0.0432867 0.519079 0.15522
478 1 0.216846 0.532585 0.161518
1506 2 0.935247 0.513409 0.166142
306 1 0.742878 0.549781 0.173267
955 1 0.169845 0.591192 0.15646
457 1 0.592466 0.582743 0.154229
1505 2 0.95059 0.572211 0.151544
156 1 0.759424 0.637719 0.143758
762 1 0.924354 0.620941 0.160269
178 1 0.0781605 0.643433 0.174765
1382 1 0.183297 0.664852 0.172356
804 1 0.791732 0.644562 0.15706
605 1 0.857958 0.701266 0.173755
1134 1 0.332049 0.745176 0.164665
1200 1 0.251372 0.808662 0.174259
30 1 0.814828 0.815087 0.171996
1309 1 0.41202 0.827581 0.15425
264 1 0.194198 0.881965 0.178017
508 1 0.297725 0.8587 0.167968
485 1 0.3245 0.873633 0.150927
548 1 0.334855 0.916057 0.169841
1541 2 0.852973 0.908916 0.15725
968 1 0.547745 0.94533 0.154196
839 1 0.747959 0.941285 0.174485
621 1 0.628427 0.975971 0.149579
657 1 0.084252 0.0229787 0.203532
1055 1 0.253467 0.0213125 0.199882
1076 1 0.357294 0.0335103 0.208111
1250 1 0.291489 0.0539186 0.209411
690 1 0.852683 0.039639 0.212366
115 1 0.185701 0.0723029 0.194086
251 1 0.813657 0.129006 0.201976
1050 1 0.517354 0.171013 0.207548
1132 1 0.28769 0.201773 0.194906
162 1 0.338859 0.202844 0.200361
172 1 0.369501 0.198916 0.181454
563 1 0.245388 0.239018 0.179765
861 1 0.731316 0.224382 0.191845
194 1 0.844661 0.222062 0.197704
308 1 0.924986 0.234617 0.210895
668 1 0.693239 0.266746 0.204985
22 1 0.358797 0.301374 0.19171
1007 1 0.0587461 0.345225 0.191605
1509 2 0.889217 0.337001 0.209936
400 1 0.237959 0.374141 0.191832
1286 1 0.720674 0.363075 0.199865
1160 1 0.973724 0.371702 0.200824
842 1 0.00912855 0.423525 0.191464
88 1 0.118606 0.403713 0.206163
1311 1 0.467746 0.407163 0.193056
1181 1 0.55146 0.394967 0.202452
33 1 0.80207 0.394014 0.190413
1508 2 0.904561 0.395804 0.195338
686 1 0.164303 0.44792 0.185295
1507 2 0.919904 0.454606 0.18074
401 1 0.118491 0.480109 0.190904
38 1 0.204229 0.479098 0.202377
1312 1 0.684389 0.533658 0.188409
1375 1 0.0368026 0.54062 0.198851
1049 1 0.396474 0.542107 0.187274
1354 1 0.437708 0.563348 0.189213
607 1 0.949519 0.566561 0.186168
43 1 0.055013 0.60339 0.180029
751 1 0.00675961 0.608688 0.211052
611 1 0.290154 0.626002 0.211458
139 1 0.541776 0.625465 0.18821
420 1 0.967728 0.61065 0.186645
595 1 0.232919 0.677705 0.193116
29 1 0.681957 0.643375 0.205915
545 1 0.394817 0.694781 0.190233
912 1 0.107262 0.744522 0.180833
682 1 0.796082 0.745833 0.214214
967 1 0.812622 0.738751 0.18442
836 1 0.192526 0.777723 0.190004
940 1 0.600152 0.756779 0.190625
886 1 0.765087 0.810149 0.180331
787 1 0.992193 0.785934 0.192209
655 1 0.305339 0.824549 0.189857
907 1 0.656741 0.850074 0.190644
523 1 0.556664 0.859237 0.197633
1540 2 0.851151 0.858612 0.194296
93 1 0.0427179 0.960444 0.187662
959 1 0.693518 0.95741 0.194468
125 1 0.922767 0.945748 0.183144
781 1 0.430652 0.969013 0.197905
1106 1 0.408224 0.0253596 0.219296
1105 1 0.584284 0.0574297 0.221777
463 1 0.924859 0.101697 0.217492
422 1 0.987987 0.089143 0.22663
672 1 0.289886 0.121629 0.215946
1086 1 0.877141 0.111099 0.237632
1146 1 0.868276 0.121094 0.230084
148 1 0.937713 0.138289 0.229304
252 1 0.618505 0.207665 0.217863
28 1 0.961754 0.205344 0.222626
232 1 0.231228 0.254312 0.225641
893 1 0.563532 0.279541 0.249734
188 1 0.153526 0.319227 0.249174
228 1 0.664923 0.361769 0.247345
1295 1 0.719189 0.410497 0.216062
818 1 0.770002 0.426563 0.249554
257 1 0.898518 0.396397 0.240214
983 1 0.0864814 0.492606 0.228037
140 1 0.248795 0.491296 0.219058
1473 1 0.376599 0.495402 0.216963
1028 1 0.679863 0.464761 0.238133
1455 1 0.874366 0.467378 0.223252
916 1 0.353098 0.521046 0.220519
556 1 0.144377 0.536636 0.235528
530 1 0.0447188 0.588459 0.231169
418 1 0.636259 0.605594 0.219307
574 1 0.80809 0.57186 0.249499
549 1 0.513515 0.643913 0.242656
136 1 0.744074 0.644923 0.228859
1099 1 0.879974 0.726972 0.218366
1472 1 0.383457 0.762434 0.233021
1474 1 0.500729 0.758329 0.230271
61 1 0.0345582 0.819078 0.236021
1157 1 0.0979246 0.818422 0.225352
809 1 0.213114 0.802357 0.220481
216 1 0.815243 0.795575 0.224459
1539 2 0.849329 0.808308 0.231343
651 1 0.120595 0.837344 0.245625
1360 1 0.947335 0.856146 0.247877
1144 1 0.0793649 0.885241 0.248507
106 1 0.87338 0.890118 0.21959
1467 1 0.250664 0.914991 0.24992
1398 1 0.451831 0.917609 0.248352
419 1 0.895636 0.94718 0.247335
1528 2 0.532219 0.982674 0.215984
429 1 0.0170177 0.0160812 0.276032
1436 1 0.60844 0.0540996 0.25138
221 1 0.967636 0.0646912 0.264278
343 1 0.296607 0.0726039 0.254358
495 1 0.315945 0.0830769 0.272932
1486 1 0.00899123 0.115623 0.276194
1233 1 0.121564 0.121037 0.266854
398 1 0.62338 0.140672 0.275888
594 1 0.0999118 0.217485 0.262405
915 1 0.845851 0.220103 0.263959
927 1 0.122941 0.270795 0.258083
725 1 0.0607676 0.320895 0.275199
546 1 0.240634 0.33196 0.256655
699 1 0.513616 0.338564 0.25146
846 1 0.102361 0.375633 0.257235
974 1 0.0956969 0.377776 0.285276
1194 1 0.154719 0.359866 0.275609
533 1 0.374986 0.390329 0.263749
1373 1 0.499516 0.366888 0.285557
1303 1 0.989849 0.388069 0.282074
539 1 0.547773 0.425493 0.260574
727 1 0.0546456 0.429301 0.255105
1466 1 0.503447 0.437809 0.263001
338 1 0.620958 0.441736 0.260777
1413 1 0.837236 0.433586 0.281658
336 1 0.881863 0.470178 0.27943
746 1 0.510297 0.569242 0.255341
785 1 0.965405 0.568767 0.272804
509 1 0.0318662 0.575729 0.278073
766 1 0.14676 0.598278 0.260088
291 1 0.478051 0.601193 0.252659
643 1 0.69052 0.571981 0.278955
1172 1 0.0140792 0.629515 0.265343
1497 1 0.40213 0.607144 0.262318
37 1 0.86914 0.641177 0.263057
1067 1 0.545052 0.691752 0.276359
1415 1 0.092921 0.722809 0.251095
67 1 0.216917 0.730544 0.256135
832 1 0.728253 0.742087 0.255323
973 1 0.467172 0.753094 0.25371
1538 2 0.847508 0.758004 0.268389
612 1 0.979341 0.779809 0.257006
718 1 0.234593 0.808251 0.279635
483 1 0.477289 0.797957 0.269658
514 1 0.729387 0.807952 0.250246
118 1 0.817506 0.81783 0.263723
98 1 0.882837 0.84151 0.26081
159 1 0.631872 0.871201 0.281243
554 1 0.0540797 0.916897 0.281262
736 1 0.132562 0.963365 0.278063
1102 1 0.204615 0.960271 0.275494
1270 1 0.364845 0.942361 0.262485
1448 1 0.661626 0.946942 0.255339
723 1 0.370916 0.988175 0.256889
765 1 0.476825 0.995435 0.277155
1430 1 0.730825 0.969433 0.262886
569 1 0.77057 0.971932 0.260561
823 1 0.752601 0.96866 0.272404
1488 1 0.266318 0.00715896 0.320676
665 1 0.868926 0.0348252 0.30797
1051 1 0.256325 0.0516624 0.290339
774 1 0.434941 0.0481519 0.28839
1068 1 0.762127 0.067609 0.304886
259 1 0.975906 0.0525567 0.320889
255 1 0.733213 0.103368 0.301995
856 1 0.106273 0.127168 0.309082
296 1 0.578102 0.162926 0.291822
798 1 0.378663 0.192796 0.320766
1141 1 0.976211 0.182679 0.288715
1143 1 0.210223 0.217368 0.310054
154 1 0.161317 0.25271 0.295722
123 1 0.566089 0.256757 0.309587
504 1 0.837583 0.256874 0.288304
1090 1 0.914991 0.253544 0.315066
722 1 0.0215572 0.311614 0.297577
488 1 0.154716 0.319647 0.302916
241 1 0.7647 0.309888 0.286548
396 1 0.972233 0.317029 0.306574
65 1 0.0454181 0.34178 0.288353
1342 1 0.601674 0.332736 0.290792
1489 1 0.596617 0.344517 0.300259
793 1 0.0044255 0.379325 0.309496
1331 1 0.227845 0.383906 0.309645
80 1 0.278121 0.373672 0.312854
1152 1 0.787194 0.365105 0.314132
660 1 0.128842 0.4465 0.320206
891 1 0.125748 0.446083 0.319034
169 1 0.2905 0.440548 0.290395
1249 1 0.508029 0.446379 0.29781
1274 1 0.974085 0.444534 0.289844
476 1 0.963318 0.491599 0.297832
439 1 0.189476 0.518315 0.318151
239 1 0.680401 0.506651 0.29169
395 1 0.450619 0.545327 0.308144
807 1 0.469188 0.642964 0.288532
969 1 0.566886 0.649866 0.29568
1537 2 0.845686 0.7077 0.305435
985 1 0.156764 0.737389 0.298473
1421 1 0.359596 0.734593 0.308967
1078 1 0.43766 0.745422 0.306512
645 1 0.0263433 0.752681 0.307048
1388 1 0.631987 0.802898 0.306575
472 1 0.729984 0.837585 0.293431
606 1 0.301951 0.896431 0.314211
1131 1 0.461707 0.914697 0.314886
1386 1 0.890696 0.928083 0.295837
1370 1 0.0840709 0.980384 0.309937
933 1 0.68031 0.965686 0.290432
1222 1 0.0129722 0.0229877 0.354745
266 1 0.686441 0.0187618 0.329708
598 1 0.69013 0.00763692 0.353763
593 1 0.906826 0.0245924 0.324038
1425 1 0.082885 0.0481552 0.344943
337 1 0.375561 0.051309 0.350962
888 1 0.952408 0.120565 0.338492
443 1 0.051297 0.147876 0.346894
857 1 0.74351 0.164655 0.349174
393 1 0.802949 0.160369 0.322965
1355 1 0.10717 0.200771 0.352121
1005 1 0.860665 0.195355 0.339359
1220 1 0.110979 0.229745 0.331412
66 1 0.346953 0.239801 0.328566
1271 1 0.581199 0.21862 0.344392
304 1 0.144539 0.262709 0.346356
531 1 0.253899 0.276333 0.334878
1142 1 0.425138 0.300668 0.334337
166 1 0.669085 0.303941 0.339391
679 1 0.661944 0.292697 0.352304
656 1 0.924159 0.340057 0.335639
932 1 0.350411 0.363083 0.339839
797 1 0.0257275 0.402472 0.344522
1151 1 0.180307 0.417347 0.347283
712 1 0.27515 0.440967 0.332233
305 1 0.206967 0.486425 0.353052
658 1 0.75418 0.495826 0.343804
208 1 0.129083 0.502132 0.33356
277 1 0.264802 0.532953 0.343293
1087 1 0.877111 0.60096 0.341525
1025 1 0.0240758 0.641777 0.339257
1333 1 0.179784 0.63184 0.340127
1490 1 0.447234 0.666648 0.356706
1045 1 0.787152 0.664386 0.341346
701 1 0.473058 0.692113 0.350044
730 1 0.747291 0.717637 0.331727
9 1 0.867301 0.734297 0.330035
506 1 0.8651 0.73995 0.332328
1027 1 0.11476 0.777672 0.340553
1390 1 0.109047 0.755064 0.354055
1207 1 0.596225 0.755121 0.322607
887 1 0.820953 0.751018 0.353659
1261 1 0.842255 0.771723 0.348895
1339 1 0.483597 0.812836 0.337941
1240 1 0.00486999 0.849845 0.337488
1272 1 0.195685 0.8837 0.350667
640 1 0.657575 0.862875 0.338803
1034 1 0.0732378 0.90744 0.339677
590 1 0.11108 0.91571 0.333271
1397 1 0.4767 0.894172 0.354106
1287 1 0.126969 0.964499 0.332822
206 1 0.761289 0.977828 0.351043
42 1 0.322187 0.00293706 0.363126
637 1 0.265845 0.0510128 0.37293
1465 1 0.135841 0.087724 0.376599
795 1 0.477841 0.0723145 0.390137
302 1 0.167258 0.108252 0.387813
620 1 0.406326 0.127826 0.364588
1079 1 0.550552 0.134133 0.380907
790 1 0.0443387 0.200177 0.380059
34 1 0.262943 0.279608 0.363927
345 1 0.920822 0.259081 0.373258
55 1 0.999063 0.254143 0.38711
633 1 0.125204 0.295375 0.36407
1004 1 0.411752 0.309535 0.362222
817 1 0.817595 0.317926 0.374652
570 1 0.240873 0.350472 0.386279
1094 1 0.226771 0.334467 0.390344
1139 1 0.103074 0.362907 0.37352
70 1 0.0824905 0.417467 0.373921
1127 1 0.0887964 0.401878 0.365596
799 1 0.113728 0.418598 0.369545
35 1 0.519569 0.397952 0.376781
587 1 0.121047 0.435614 0.364933
379 1 0.568598 0.433115 0.370655
975 1 0.641129 0.452512 0.361662
1422 1 0.815343 0.462865 0.377156
104 1 0.0854688 0.474111 0.386955
1485 1 0.318408 0.479585 0.382639
1352 1 0.881268 0.468101 0.380796
938 1 0.00830343 0.555684 0.386217
426 1 0.094457 0.53837 0.380645
1402 1 0.770189 0.566393 0.368628
268 1 0.145989 0.633569 0.389442
991 1 0.726759 0.639994 0.373616
359 1 0.904958 0.637494 0.363872
698 1 0.0300265 0.655583 0.3885
717 1 0.901212 0.67498 0.381284
1082 1 0.944171 0.689021 0.382475
1334 1 0.521553 0.742214 0.38624
1264 1 0.79043 0.762918 0.365182
527 1 0.0762653 0.791002 0.37233
904 1 0.326282 0.814504 0.374759
281 1 0.860047 0.803377 0.359658
493 1 0.035571 0.841517 0.372148
24 1 0.213475 0.876324 0.382481
1305 1 0.409824 0.914166 0.38881
1269 1 0.522694 0.917914 0.382481
1429 1 0.666561 0.896791 0.360489
844 1 0.702856 0.899945 0.379304
596 1 0.702858 0.940642 0.375802
734 1 0.7789 0.968131 0.382721
999 1 0.753376 0.982292 0.385764
1183 1 0.805496 0.967893 0.380496
1060 1 0.901706 0.968904 0.368428
1111 1 0.0503381 0.0329275 0.411915
794 1 0.699649 0.00305851 0.404384
248 1 0.830072 0.0223358 0.398219
757 1 0.964183 0.0313805 0.411417
372 1 0.230921 0.0965314 0.403272
555 1 0.169342 0.131755 0.408172
652 1 0.225747 0.134432 0.398729
641 1 0.263468 0.114264 0.428392
174 1 0.368188 0.141155 0.394729
1030 1 0.808184 0.147285 0.411639
1164 1 0.661106 0.201131 0.407845
510 1 0.574358 0.227013 0.406175
327 1 0.574002 0.258428 0.400492
75 1 0.750536 0.252835 0.39711
1044 1 0.855791 0.278955 0.404521
452 1 0.060112 0.30222 0.407112
391 1 0.2088 0.297104 0.423583
78 1 0.00103428 0.383078 0.397405
1451 1 0.461853 0.371418 0.421197
1147 1 0.0288831 0.438294 0.400452
524 1 0.623399 0.460606 0.40913
87 1 0.391178 0.521891 0.427508
1378 1 0.516362 0.502137 0.422538
1353 1 0.0406116 0.558661 0.419851
1291 1 0.140212 0.538966 0.409026
292 1 0.442171 0.560564 0.407083
1346 1 0.6619 0.545631 0.412737
341 1 0.211375 0.572465 0.415475
157 1 0.14569 0.618815 0.420152
334 1 0.496734 0.614232 0.396704
1176 1 0.626087 0.636069 0.408303
1445 1 0.637392 0.640889 0.427629
1260 1 0.698259 0.635414 0.401133
411 1 0.752581 0.636188 0.415626
567 1 0.0481746 0.669745 0.410671
382 1 0.187461 0.660463 0.40442
654 1 0.798991 0.644221 0.42383
1138 1 0.125228 0.714845 0.394901
970 1 0.50162 0.721807 0.405093
542 1 0.592237 0.735135 0.415285
348 1 0.0951258 0.77958 0.3942
1056 1 0.421358 0.7584 0.427016
167 1 0.146717 0.87466 0.407735
1033 1 0.468429 0.885489 0.406978
1246 1 0.278808 0.926544 0.424208
950 1 0.41268 0.909407 0.400749
522 1 0.502642 0.90554 0.403496
171 1 0.698929 0.897864 0.408245
1107 1 0.704226 0.927495 0.407971
585 1 0.22532 0.958434 0.40078
557 1 0.516745 0.931124 0.401684
1482 1 0.690363 0.931184 0.403866
994 1 0.0575944 0.989612 0.40469
364 1 0.59856 0.99098 0.400527
1199 1 0.774913 0.97081 0.408833
635 1 0.198489 0.00859403 0.4398
57 1 0.450945 0.0307273 0.433862
1394 1 0.24728 0.0412584 0.430365
845 1 0.955142 0.0632154 0.460885
409 1 0.77498 0.0829687 0.454679
142 1 0.040705 0.128842 0.451673
768 1 0.0379091 0.138719 0.443252
1195 1 0.164404 0.135387 0.44241
899 1 0.569652 0.13515 0.459078
214 1 0.257581 0.165195 0.437538
943 1 0.648371 0.165851 0.449991
137 1 0.432689 0.201967 0.454746
573 1 0.687463 0.188877 0.45236
602 1 0.115681 0.244449 0.447456
833 1 0.220993 0.224635 0.437392
917 1 0.254847 0.219281 0.463886
1316 1 0.652303 0.249506 0.439415
425 1 0.678066 0.263131 0.438275
649 1 0.811404 0.266284 0.428986
374 1 0.938018 0.274853 0.452729
1338 1 0.837172 0.351011 0.448651
1450 1 0.358563 0.373264 0.455076
972 1 0.454713 0.360353 0.459479
335 1 0.401227 0.418305 0.456886
59 1 0.239869 0.482087 0.439974
1112 1 0.0557223 0.525166 0.456565
347 1 0.174423 0.523916 0.458565
1122 1 0.450619 0.550868 0.436898
1278 1 0.19793 0.60662 0.464148
361 1 0.962253 0.584545 0.445511
821 1 0.253742 0.637618 0.448841
297 1 0.648458 0.629585 0.436356
877 1 0.735922 0.635298 0.452805
1187 1 0.910372 0.620422 0.433225
94 1 0.0409147 0.65279 0.445389
1299 1 0.0623959 0.68718 0.43363
629 1 0.185737 0.687299 0.433478
1096 1 0.059662 0.73841 0.448685
708 1 0.347816 0.742932 0.45069
195 1 0.810956 0.741504 0.449509
538 1 0.0979213 0.76334 0.462399
1417 1 0.351924 0.783271 0.443409
1221 1 0.03313 0.81558 0.445172
1361 1 0.0663287 0.78702 0.4432
872 1 0.418862 0.811831 0.446946
1452 1 0.0651427 0.854134 0.429032
1149 1 0.0826351 0.847829 0.460962
630 1 0.469439 0.864726 0.454514
1368 1 0.928593 0.868176 0.441563
667 1 0.0468798 0.90804 0.435396
1239 1 0.0767484 0.910837 0.432915
1117 1 0.300466 0.938625 0.463166
1396 1 0.551909 0.940408 0.44169
913 1 0.255071 0.974561 0.451544
1493 1 0.12251 0.0256123 0.466087
1358 1 0.6298 0.0463782 0.479174
384 1 0.394364 0.0807102 0.496131
811 1 0.189868 0.117063 0.483459
41 1 0.644682 0.176443 0.481366
54 1 0.757253 0.154488 0.484381
965 1 0.0106018 0.184772 0.47096
132 1 0.389909 0.198518 0.489133
673 1 0.403415 0.200182 0.466721
1510 2 0.968397 0.235984 0.479685
1314 1 0.633088 0.305437 0.474582
1021 1 0.929094 0.286814 0.483362
936 1 0.633625 0.333044 0.471676
865 1 0.175305 0.358509 0.469092
1048 1 0.342083 0.383797 0.470839
12 1 0.0231692 0.405158 0.495629
786 1 0.0155536 0.409084 0.474802
1041 1 0.225586 0.42265 0.475902
956 1 0.625479 0.41908 0.482007
192 1 0.739778 0.450972 0.479022
944 1 0.991875 0.440798 0.48673
73 1 0.477807 0.506664 0.496498
780 1 0.593597 0.577943 0.494462
474 1 0.179724 0.62346 0.485352
1238 1 0.217804 0.626614 0.495988
552 1 0.458714 0.612869 0.486025
1242 1 0.027885 0.663919 0.486058
922 1 0.357985 0.658564 0.492485
1104 1 0.561948 0.667311 0.494115
1384 1 0.554929 0.685874 0.490071
952 1 0.917219 0.701938 0.477552
1118 1 0.424569 0.732165 0.497629
165 1 0.188658 0.773755 0.496143
1101 1 0.488354 0.771493 0.489689
1527 2 0.268608 0.812648 0.487091
1464 1 0.687796 0.789998 0.495813
313 1 0.928947 0.811654 0.474021
1180 1 0.165756 0.856338 0.478226
1064 1 0.286776 0.836465 0.475427
1159 1 0.499367 0.852769 0.481107
158 1 0.489371 0.864847 0.489715
14 1 0.583082 0.860443 0.464948
238 1 0.86237 0.858838 0.491562
124 1 0.225854 0.924049 0.487054
1294 1 0.752895 0.900071 0.495789
1253 1 0.0599156 0.000924135 0.531931
1059 1 0.17225 0.00187442 0.503296
449 1 0.31237 0.00163664 0.507066
1449 1 0.48813 0.00395751 0.513855
141 1 0.705898 0.0338262 0.516573
160 1 0.852562 0.00824223 0.527151
824 1 0.294463 0.0450714 0.514234
1123 1 0.940801 0.0413224 0.505778
1010 1 0.254304 0.0902913 0.526284
747 1 0.508721 0.0798781 0.511458
1225 1 0.474037 0.132357 0.521649
995 1 0.625581 0.131701 0.501573
949 1 0.207839 0.147172 0.514691
881 1 0.249252 0.17359 0.528059
196 1 0.895472 0.20435 0.514103
1284 1 0.278409 0.224699 0.511616
571 1 0.195648 0.253318 0.507984
392 1 0.151978 0.298835 0.512632
1357 1 0.402173 0.314483 0.516072
204 1 0.730487 0.300739 0.522169
868 1 0.867157 0.302464 0.51389
829 1 0.37052 0.33519 0.534709
1188 1 0.215886 0.392248 0.517954
1156 1 0.302515 0.36244 0.532046
15 1 0.378792 0.359464 0.505111
945 1 0.463937 0.39082 0.515756
475 1 0.30942 0.424616 0.524303
1244 1 0.57419 0.416227 0.530328
619 1 0.729126 0.424497 0.51356
518 1 0.533019 0.443179 0.515893
362 1 0.697295 0.444667 0.522676
526 1 0.0705367 0.511007 0.502593
1387 1 0.129143 0.508807 0.513098
1341 1 0.151337 0.517494 0.527971
808 1 0.351551 0.517433 0.500994
1296 1 0.346374 0.508391 0.532798
464 1 0.385764 0.531536 0.528794
350 1 0.66386 0.501845 0.515584
825 1 0.72515 0.601625 0.51697
79 1 0.180679 0.680164 0.516111
369 1 0.291705 0.684923 0.508531
1498 1 0.776385 0.706105 0.509024
543 1 0.687972 0.746268 0.527604
1526 2 0.246804 0.760622 0.514001
1167 1 0.314259 0.754062 0.519644
1322 1 0.521317 0.778933 0.518787
270 1 0.949471 0.756085 0.527441
561 1 0.800964 0.810347 0.501693
90 1 0.0855494 0.829388 0.522652
410 1 0.790077 0.827008 0.529765
1022 1 0.862844 0.821652 0.509504
1088 1 0.0109995 0.868061 0.507456
421 1 0.94335 0.885435 0.502468
1128 1 0.568807 0.93839 0.515208
511 1 0.582315 0.96207 0.508594
152 1 0.801271 0.95505 0.524418
581 1 0.105966 0.965403 0.533979
32 1 0.276788 0.97998 0.529648
1177 1 0.349793 0.96457 0.526085
764 1 0.415721 0.0223444 0.542897
1193 1 0.440414 0.0298419 0.552577
688 1 0.615817 0.0353169 0.57073
366 1 0.806629 0.0199056 0.553533
1178 1 0.91337 0.00925612 0.567677
1043 1 0.973643 0.0140151 0.551488
847 1 0.351048 0.0670285 0.547314
801 1 0.567088 0.0463223 0.538828
748 1 0.0670604 0.083866 0.536695
1073 1 0.697274 0.0858908 0.567392
489 1 0.108653 0.132359 0.551577
1254 1 0.158989 0.120637 0.540411
1204 1 0.409718 0.125755 0.557304
1288 1 0.741425 0.132597 0.558013
437 1 0.108834 0.169843 0.550995
1061 1 0.174342 0.157706 0.564577
777 1 0.219502 0.164906 0.569732
1026 1 0.897254 0.152054 0.570424
177 1 0.0098288 0.192632 0.560366
1469 1 0.164527 0.202628 0.570694
1315 1 0.301731 0.194237 0.54737
1219 1 0.583816 0.193048 0.554597
1297 1 0.736431 0.194059 0.547163
941 1 0.840376 0.202568 0.556702
600 1 0.665688 0.221965 0.562368
1155 1 0.787186 0.242849 0.562343
1511 2 0.975572 0.234132 0.541744
1013 1 0.13484 0.255403 0.556422
1169 1 0.429004 0.277417 0.539772
716 1 0.753334 0.285033 0.552681
650 1 0.966577 0.25344 0.566021
1126 1 0.59858 0.334002 0.570244
502 1 0.731502 0.353576 0.551065
469 1 0.892564 0.32228 0.560776
184 1 0.115272 0.379517 0.550435
1098 1 0.843302 0.374104 0.566662
568 1 0.139132 0.394868 0.540178
1211 1 0.54688 0.414384 0.546773
830 1 0.85794 0.397188 0.536072
183 1 0.0482213 0.455795 0.53996
1140 1 0.753999 0.458889 0.55203
1337 1 0.899889 0.43164 0.570526
370 1 0.883886 0.477216 0.566478
455 1 0.249988 0.54564 0.56816
961 1 0.68576 0.569676 0.540962
450 1 0.260164 0.579733 0.565917
414 1 0.521904 0.642028 0.569379
323 1 0.574024 0.616265 0.571242
879 1 0.675411 0.63578 0.556557
1410 1 0.808094 0.641076 0.569697
1461 1 0.807379 0.622332 0.539966
1282 1 0.203586 0.667016 0.537284
1351 1 0.205608 0.656366 0.548931
1524 2 0.203194 0.656571 0.567821
1277 1 0.274866 0.677846 0.565907
368 1 0.450805 0.674395 0.562759
791 1 0.654052 0.647501 0.544573
1453 1 0.736934 0.649465 0.55349
318 1 0.174017 0.69861 0.537365
1525 2 0.224999 0.708596 0.540911
233 1 0.340793 0.69998 0.559632
405 1 0.844749 0.694625 0.558694
333 1 0.21192 0.740321 0.569733
700 1 0.292541 0.738891 0.545456
855 1 0.193952 0.751089 0.560368
1031 1 0.410232 0.771795 0.561075
745 1 0.701659 0.784407 0.536236
278 1 0.721298 0.857117 0.563861
1381 1 0.942516 0.867468 0.53937
1420 1 0.96816 0.857711 0.54771
133 1 0.859992 0.89353 0.565636
577 1 0.139823 0.0096144 0.589285
46 1 0.133816 0.0534659 0.601124
1475 1 0.159877 0.0512048 0.598834
579 1 0.278221 0.0542992 0.605942
789 1 0.764208 0.0417436 0.584878
300 1 0.393115 0.0889869 0.603067
197 1 0.526512 0.0854156 0.580622
116 1 0.00322112 0.13736 0.604998
1186 1 0.596306 0.11939 0.595223
1237 1 0.877974 0.112012 0.57989
895 1 0.679312 0.198168 0.60314
213 1 0.741667 0.204712 0.589948
1120 1 0.0160785 0.231547 0.603393
285 1 0.663607 0.247314 0.600883
758 1 0.688238 0.21435 0.582393
330 1 0.790459 0.236187 0.586769
1512 2 0.982748 0.232281 0.603803
134 1 0.636244 0.359885 0.590448
317 1 0.921662 0.37238 0.598154
1032 1 0.98134 0.386184 0.598528
1302 1 0.664569 0.412899 0.585351
924 1 0.844256 0.407008 0.591007
309 1 0.504222 0.451989 0.584006
773 1 0.703901 0.459367 0.586151