LAMMPS (7 Feb 2024 - Update 1)
OMP_NUM_THREADS environment is not set. Defaulting to 1 thread. (src/comm.cpp:98)
  using 1 OpenMP thread(s) per MPI task
# Molecular Dynamics - Deformation of Carbon Nanotube with Breakable Bonds

# 1) Initialization
## Define simulation temperature, T=300K
variable T equal 300

units metal
atom_style atomic
boundary f f f
pair_style airebo 2.5 1 1

# 2) System definition
## Import VMD generated initial carbon nanotube topology. Topology from cnt_molecular.data has been altered to be compatible with the AIREBO potential
read_data cnt_atomic.data
Reading data file ...
  orthogonal box = (-40 -40 -12.130411) to (40 40 67.869589)
  1 by 1 by 1 MPI processor grid
WARNING: Atom style in data file molecular differs from currently defined atom style atomic (src/read_data.cpp:621)
  reading atoms ...
  700 atoms
  read_data CPU = 0.001 seconds

# 3) Simulation settings
## Import parameters/coefficients for the AIREBO potential. This file is from the original 'Stuart' paper
pair_coeff * * CH.airebo C
Reading airebo potential file CH.airebo with DATE: 2011-10-25

## Center the simulation box about the origin (0, 0, 0) by altering dimensions to be from -40 to 40 in x, y & z directions
## Increase box size along z-axis to 120 Å to allow for larger deformation in z-direction
change_box all x final -40 40 y final -40 40 z final -60 60
Changing box ...
  orthogonal box = (-40 -40 -12.130411) to (40 40 67.869589)
  orthogonal box = (-40 -40 -12.130411) to (40 40 67.869589)
  orthogonal box = (-40 -40 -60) to (40 40 60)

## Calculate the negative of the x, y & z centre of mass (cm) components of the carbon_atoms group
## Recenter the carbon nanotube at the origin (0, 0, 0) by displacing them by the calculated center of mass variables
group carbon_atoms type 1
700 atoms in group carbon_atoms
variable carbon_xcm equal -1*xcm(carbon_atoms,x)
variable carbon_ycm equal -1*xcm(carbon_atoms,y)
variable carbon_zcm equal -1*xcm(carbon_atoms,z)
displace_atoms carbon_atoms move ${carbon_xcm} ${carbon_ycm} ${carbon_zcm}
displace_atoms carbon_atoms move 8.45130634422529e-18 ${carbon_ycm} ${carbon_zcm}
displace_atoms carbon_atoms move 8.45130634422529e-18 1.0914862143567e-15 ${carbon_zcm}
displace_atoms carbon_atoms move 8.45130634422529e-18 1.0914862143567e-15 -27.8695884500003
Displacing atoms ...

## Define top edge region, bottom edge region, & middle region of carbon nanotube
variable zmax equal bound(carbon_atoms,zmax)-0.5 # (- 0.5 Å)
variable zmin equal bound(carbon_atoms,zmin)+0.5 # (+ 0.5 Å)
region region_top block INF INF INF INF ${zmax} INF
region region_top block INF INF INF INF 27.3695895499997 INF
region region_bottom block INF INF INF INF INF ${zmin}
region region_bottom block INF INF INF INF INF -27.3695884500003
region region_middle block INF INF INF INF ${zmin} ${zmax}
region region_middle block INF INF INF INF -27.3695884500003 ${zmax}
region region_middle block INF INF INF INF -27.3695884500003 27.3695895499997

## Group atoms according to these regions
group carbon_top region region_top
10 atoms in group carbon_top
group carbon_bottom region region_bottom
10 atoms in group carbon_bottom
group carbon_middle region region_middle
680 atoms in group carbon_middle

# 4) Visualization

# 5) Run
## Re-order atoms by their IDs since atoms have deleted
reset_atoms id sort yes
Resetting atom IDs ...
Neighbor list info ...
  update: every = 1 steps, delay = 0 steps, check = yes
  max neighbors/atom: 2000, page size: 100000
  master list distance cutoff = 10.5
  ghost atom cutoff = 10.5
  binsize = 5.25, bins = 16 16 23
  1 neighbor lists, perpetual/occasional/extra = 1 0 0
  (1) pair airebo, perpetual
      attributes: full, newton on, ghost
      pair build: full/bin/ghost
      stencil: full/ghost/bin/3d
      bin: standard

## Initialize velocities of atoms in the carbon_middle group at T (300 K) with no overall translational momentum (`mom yes``) or rotational momentum (`rot yes`)
## As a result of `mom yes` and `rot yes`, the systems net movement and rotation is null
velocity carbon_middle create ${T} 48455 mom yes rot yes
velocity carbon_middle create 300 48455 mom yes rot yes

## Apply the NVE ensemble to the system
fix nve_ensemble all nve

## Calculate the temperature of the carbon_middle group
compute carbon_middle_temp carbon_middle temp

## Apply a Berendsen thermostat to the carbon_middle group to regulate its temperature to ${T} with a relaxation time of 100 time units
fix berendsen_thermostat carbon_middle temp/berendsen ${T} ${T} 0.1
fix berendsen_thermostat carbon_middle temp/berendsen 300 ${T} 0.1
fix berendsen_thermostat carbon_middle temp/berendsen 300 300 0.1

## Modify Berendsen thermostat fix to use the temperature calculated by carbon_middle_temp compute command
fix_modify berendsen_thermostat temp carbon_middle_temp

## Apply an initial velocity of zero in the x, y and z directions to the top and bottom carbon groups
velocity carbon_top set 0 0 0
velocity carbon_bottom set 0 0 0

## Ensure all forces affecting the top and bottom carbon groups are constant. Because inital velocity is zero, this ensures they remain immobile during the simulation
fix carbon_top_force carbon_top setforce 0 0 0
fix carbon_bottom_force carbon_bottom setforce 0 0 0



## Output state of all atoms every 1000 timesteps
dump dump_all_atoms_per_1000_timestep all atom 1000 trajectory-output-data/dump_all_atoms_per_1000_timestep-1.lammpstrj


## Output thermodynamic data every 100 timesteps. Particularly the temperature of the carbon_middle group
thermo 100
thermo_modify temp carbon_middle_temp
WARNING: Temperature for thermo pressure is not for group all (src/thermo.cpp:529)

## Set simulation timestep to 0.0005 picoseconds (0.5 femtoseconds) and run initial simulation of 5000 timesteps to equilibrate the system before applying any deformation
## Need to use a smaller timestep of 0.0005 ps (0.5 fm) as reactive force fields usually require smaller timesteps than classical/non-reactive force fields
timestep 0.0005
run 5000
Per MPI rank memory allocation (min/avg/max) = 4.286 | 4.286 | 4.286 Mbytes
   Step          Temp          E_pair         E_mol          TotEng         Press     
         0   300           -5084.7276      0             -5058.3973     -710.48517    
       100   242.92938     -5075.3878      0             -5054.0664     -131.31852    
       200   243.46601     -5071.8466      0             -5050.4782     -154.14138    
       300   217.1173      -5066.8785      0             -5047.8226     -692.7114     
       400   274.54906     -5069.8862      0             -5045.7897     -150.01384    
       500   267.01304     -5067.572       0             -5044.1369     -105.8622     
       600   254.03828     -5065.2693      0             -5042.9729     -702.09935    
       700   292.60951     -5067.5734      0             -5041.8918     -189.046      
       800   278.7248      -5065.4586      0             -5040.9956     -76.98608     
       900   278.34036     -5065.0019      0             -5040.5726     -658.69638    
      1000   322.41464     -5068.475       0             -5040.1775     -251.86348    
      1100   293.61616     -5065.4887      0             -5039.7187     -59.500749    
      1200   278.02502     -5063.8892      0             -5039.4876     -602.58802    
      1300   302.11955     -5065.9003      0             -5039.384      -329.1173     
      1400   290.0235      -5064.511       0             -5039.0564     -43.13387     
      1500   295.56098     -5064.8354      0             -5038.8947     -523.61036    
      1600   312.17774     -5066.4231      0             -5039.024      -381.32378    
      1700   284.18271     -5063.8315      0             -5038.8895     -92.274222    
      1800   308.89146     -5065.6969      0             -5038.5862     -438.87515    
      1900   325.75642     -5067.2899      0             -5038.699      -445.04225    
      2000   291.63956     -5064.3942      0             -5038.7977     -143.18004    
      2100   309.88154     -5065.7804      0             -5038.5828     -339.94714    
      2200   300.59974     -5065.0908      0             -5038.7079     -474.99123    
      2300   290.61119     -5064.2319      0             -5038.7257     -220.90648    
      2400   300.37695     -5064.825       0             -5038.4616     -236.27103    
      2500   301.99925     -5065.1349      0             -5038.6292     -510.48124    
      2600   304.192       -5065.381       0             -5038.6827     -286.13007    
      2700   293.99481     -5064.2187      0             -5038.4154     -169.17994    
      2800   310.82037     -5065.8867      0             -5038.6068     -477.69899    
      2900   305.60851     -5065.4176      0             -5038.5951     -354.16358    
      3000   287.93088     -5063.8832      0             -5038.6122     -135.38077    
      3100   293.47285     -5064.2713      0             -5038.5139     -451.51718    
      3200   308.71984     -5065.7195      0             -5038.6239     -386.77809    
      3300   295.54042     -5064.6773      0             -5038.7384     -149.18445    
      3400   305.97411     -5065.3503      0             -5038.4957     -405.51765    
      3500   310.85654     -5065.74        0             -5038.4568     -415.763      
      3600   295.4435      -5064.499       0             -5038.5686     -188.4736     
      3700   304.00763     -5065.0775      0             -5038.3954     -360.35806    
      3800   290.00348     -5064.0219      0             -5038.5689     -420.13062    
      3900   296.74045     -5064.6589      0             -5038.6147     -229.3131     
      4000   290.99548     -5064.0055      0             -5038.4655     -317.7653     
      4100   310.51971     -5065.8471      0             -5038.5935     -407.21147    
      4200   298.99608     -5064.9442      0             -5038.702      -309.21546    
      4300   284.57542     -5063.5573      0             -5038.5808     -271.67431    
      4400   308.58155     -5065.6176      0             -5038.5342     -377.25742    
      4500   305.69992     -5065.5258      0             -5038.6952     -372.35734    
      4600   290.91146     -5064.1263      0             -5038.5937     -262.47521    
      4700   310.02641     -5065.6367      0             -5038.4264     -311.35114    
      4800   295.57344     -5064.4249      0             -5038.4831     -421.30941    
      4900   292.37118     -5064.2895      0             -5038.6288     -249.7777     
      5000   308.96754     -5065.6396      0             -5038.5222     -290.3558     
Loop time of 16.2614 on 1 procs for 5000 steps with 700 atoms

Performance: 13.283 ns/day, 1.807 hours/ns, 307.477 timesteps/s, 215.234 katom-step/s
100.0% CPU use with 1 MPI tasks x 1 OpenMP threads

MPI task timing breakdown:
Section |  min time  |  avg time  |  max time  |%varavg| %total
---------------------------------------------------------------
Pair    | 16.222     | 16.222     | 16.222     |   0.0 | 99.76
Neigh   | 0          | 0          | 0          |   0.0 |  0.00
Comm    | 0.00048875 | 0.00048875 | 0.00048875 |   0.0 |  0.00
Output  | 0.0023458  | 0.0023458  | 0.0023458  |   0.0 |  0.01
Modify  | 0.031078   | 0.031078   | 0.031078   |   0.0 |  0.19
Other   |            | 0.005196   |            |       |  0.03

Nlocal:            700 ave         700 max         700 min
Histogram: 1 0 0 0 0 0 0 0 0 0
Nghost:              0 ave           0 max           0 min
Histogram: 1 0 0 0 0 0 0 0 0 0
Neighs:              0 ave           0 max           0 min
Histogram: 1 0 0 0 0 0 0 0 0 0
FullNghs:       109830 ave      109830 max      109830 min
Histogram: 1 0 0 0 0 0 0 0 0 0

Total # of neighbors = 109830
Ave neighs/atom = 156.9
Neighbor list builds = 0
Dangerous builds = 0

## Apply a constant velocity of 0.15 Å/ps in the z-direction to the top carbon group, simulating a compressive force
## Run deformation simulation of 280,000 timesteps
## Because we have previously set all forces affecting the top and bottom carbon groups as constant, this imposes a constant velocity deformation of 0.15 A/ps = 15 m/s
velocity carbon_top set 0 0 0.15
run 280000
Per MPI rank memory allocation (min/avg/max) = 5.312 | 5.312 | 5.312 Mbytes
   Step          Temp          E_pair         E_mol          TotEng         Press     
      5000   308.96754     -5065.6396      0             -5038.5222     -290.3558     
      5100   299.72149     -5064.7912      0             -5038.4854     -439.94918    
      5200   293.63556     -5064.2703      0             -5038.4986     -280.12638    
      5300   298.45683     -5064.5886      0             -5038.3937     -270.0159     
      5400   298.87868     -5064.6567      0             -5038.4248     -452.24459    
      5500   302.99598     -5064.9385      0             -5038.3452     -313.30893    
      5600   306.14278     -5065.0889      0             -5038.2195     -238.79403    
      5700   301.68503     -5064.5631      0             -5038.0849     -457.58325    
      5800   292.96428     -5063.8369      0             -5038.1241     -355.66268    
      5900   294.53327     -5063.8211      0             -5037.9706     -239.66892    
      6000   301.0317      -5064.3428      0             -5037.922      -452.69429    
      6100   291.97002     -5063.4619      0             -5037.8364     -400.38148    
      6200   284.18829     -5062.7023      0             -5037.7597     -240.68976    
      6300   282.93892     -5062.5014      0             -5037.6685     -439.44669    
      6400   300.23479     -5063.9169      0             -5037.566      -417.58035    
      6500   301.75641     -5064.0858      0             -5037.6014     -266.35742    
      6600   297.39236     -5063.5955      0             -5037.4941     -417.34973    
      6700   297.1316      -5063.3894      0             -5037.3109     -424.53204    
      6800   293.82943     -5063.1519      0             -5037.3632     -305.20529    
      6900   296.69794     -5063.2583      0             -5037.2178     -413.24032    
      7000   303.98405     -5063.9408      0             -5037.2608     -449.1601     
      7100   308.38488     -5064.4733      0             -5037.4071     -339.67129    
      7200   294.49939     -5062.8112      0             -5036.9637     -368.13131    
      7300   310.46705     -5064.3488      0             -5037.0998     -448.48932    
      7400   307.62562     -5063.976       0             -5036.9764     -411.64126    
      7500   297.41979     -5062.7899      0             -5036.6861     -338.39539    
      7600   302.93365     -5063.3683      0             -5036.7805     -456.76114    
      7700   294.24097     -5062.4905      0             -5036.6656     -454.94052    
      7800   298.31589     -5062.623       0             -5036.4405     -308.1477     
      7900   307.4421      -5063.4264      0             -5036.4429     -462.39027    
      8000   302.79996     -5062.961       0             -5036.385      -506.44005    
      8100   318.09804     -5064.4013      0             -5036.4826     -302.22707    
      8200   314.01979     -5063.975       0             -5036.4142     -447.05113    
      8300   302.20857     -5062.6975      0             -5036.1734     -526.00472    
      8400   300.64321     -5062.5469      0             -5036.1601     -309.84082    
      8500   301.76383     -5062.5076      0             -5036.0225     -463.48539    
      8600   300.50766     -5062.2579      0             -5035.883      -551.91029    
      8700   302.20246     -5062.4237      0             -5035.9001     -335.08444    
      8800   299.85221     -5061.9786      0             -5035.6613     -459.24667    
      8900   304.58176     -5062.2636      0             -5035.5312     -559.07176    
      9000   285.86895     -5060.7196      0             -5035.6295     -343.96711    
      9100   308.09578     -5062.538       0             -5035.4972     -456.51848    
      9200   289.60911     -5060.8208      0             -5035.4025     -543.78703    
      9300   301.93942     -5061.8546      0             -5035.354      -389.73377    
      9400   299.94666     -5061.5327      0             -5035.2071     -440.41413    
      9500   309.41932     -5062.325       0             -5035.168      -548.30933    
      9600   293.82035     -5060.874       0             -5035.0861     -419.601      
      9700   287.73549     -5060.1421      0             -5034.8882     -453.45875    
      9800   288.25955     -5060.1935      0             -5034.8936     -548.6483     
      9900   305.43697     -5061.6255      0             -5034.818      -463.18212    
     10000   289.5978      -5060.0522      0             -5034.6349     -416.01372    
     10100   303.48284     -5061.2074      0             -5034.5714     -542.96234    
     10200   302.48111     -5061.0788      0             -5034.5308     -497.47996    
     10300   294.35296     -5060.2105      0             -5034.3758     -434.52893    
     10400   300.00279     -5060.4783      0             -5034.1477     -535.12745    
     10500   293.73885     -5060.0213      0             -5034.2405     -544.59875    
     10600   298.74451     -5060.4126      0             -5034.1925     -419.59075    
     10700   301.71191     -5060.5268      0             -5034.0463     -532.75875    
     10800   304.03363     -5060.5345      0             -5033.8502     -548.75834    
     10900   302.63658     -5060.4322      0             -5033.8705     -454.12166    
     11000   308.12521     -5060.6914      0             -5033.648      -540.45128    
     11100   299.21946     -5059.9027      0             -5033.6409     -569.98074    
     11200   301.44748     -5059.9619      0             -5033.5046     -465.29434    
     11300   307.72776     -5060.3694      0             -5033.3608     -536.68508    
     11400   304.77784     -5060.0525      0             -5033.3028     -575.26877    
     11500   303.18783     -5059.8531      0             -5033.243      -474.51228    
     11600   292.13657     -5058.6506      0             -5033.0104     -521.12613    
     11700   299.48214     -5059.227       0             -5032.9421     -568.45294    
     11800   300.65018     -5059.3236      0             -5032.9362     -527.67289    
     11900   301.92488     -5059.2148      0             -5032.7156     -517.44529    
     12000   305.35583     -5059.4859      0             -5032.6856     -565.38514    
     12100   303.04607     -5059.2367      0             -5032.6391     -567.05709    
     12200   288.95188     -5057.8155      0             -5032.4549     -510.3654     
     12300   300.91134     -5058.7463      0             -5032.3361     -569.62666    
     12400   287.26799     -5057.472       0             -5032.2591     -615.15576    
     12500   282.7962      -5056.8704      0             -5032.05       -480.58068    
     12600   319.37308     -5060.0332      0             -5032.0026     -571.70307    
     12700   303.49304     -5058.5783      0             -5031.9414     -647.26733    
     12800   302.28492     -5058.2424      0             -5031.7116     -484.43978    
     12900   310.87597     -5058.9555      0             -5031.6707     -570.9956     
     13000   292.47282     -5057.2515      0             -5031.5819     -662.11877    
     13100   292.03854     -5057.1578      0             -5031.5262     -484.50279    
     13200   294.82143     -5057.3322      0             -5031.4564     -565.90202    
     13300   301.95876     -5057.8088      0             -5031.3066     -704.49511    
     13400   302.58341     -5057.681       0             -5031.124      -477.95015    
     13500   311.8284      -5058.3908      0             -5031.0224     -562.02397    
     13600   298.27171     -5057.1088      0             -5030.9302     -722.21241    
     13700   310.42966     -5058.0835      0             -5030.8378     -504.65222    
     13800   294.34344     -5056.6251      0             -5030.7913     -566.36362    
     13900   305.66929     -5057.3952      0             -5030.5673     -727.18676    
     14000   311.73576     -5057.8094      0             -5030.449      -534.95977    
     14100   296.79019     -5056.4665      0             -5030.4179     -558.44356    
     14200   297.72712     -5056.4094      0             -5030.2786     -735.33814    
     14300   312.65437     -5057.4808      0             -5030.0398     -538.80766    
     14400   298.03446     -5056.1226      0             -5029.9648     -553.79523    
     14500   291.82788     -5055.4131      0             -5029.8        -748.47098    
     14600   302.06702     -5056.3659      0             -5029.8542     -564.16037    
     14700   284.45486     -5054.7021      0             -5029.7362     -560.52244    
     14800   292.36158     -5055.1875      0             -5029.5276     -742.17872    
     14900   298.87795     -5055.6739      0             -5029.4421     -592.99516    
     15000   300.25804     -5055.7107      0             -5029.3577     -576.82882    
     15100   288.58591     -5054.4881      0             -5029.1596     -727.55201    
     15200   304.54781     -5055.8084      0             -5029.0789     -615.48786    
     15300   292.34641     -5054.5227      0             -5028.8642     -574.23429    
     15400   299.05592     -5055.016       0             -5028.7686     -727.51162    
     15500   306.15882     -5055.5653      0             -5028.6944     -656.08434    
     15600   299.72207     -5054.8096      0             -5028.5037     -577.7327     
     15700   301.49365     -5054.8621      0             -5028.4007     -692.52406    
     15800   307.74426     -5055.3848      0             -5028.3748     -681.7129     
     15900   299.07771     -5054.5268      0             -5028.2774     -593.18485    
     16000   302.25472     -5054.662       0             -5028.1338     -672.94008    
     16100   312.45875     -5055.4527      0             -5028.029      -717.0139     
     16200   312.08183     -5055.1869      0             -5027.7962     -609.32047    
     16300   302.32507     -5054.1727      0             -5027.6383     -660.19042    
     16400   296.37181     -5053.4813      0             -5027.4695     -746.25295    
     16500   305.25013     -5054.1862      0             -5027.3951     -655.08525    
     16600   304.48317     -5054.0027      0             -5027.279      -645.11291    
     16700   305.26265     -5053.9703      0             -5027.1781     -751.40304    
     16800   299.06965     -5053.2923      0             -5027.0436     -674.54751    
     16900   310.65952     -5054.0994      0             -5026.8336     -626.30124    
     17000   294.99402     -5052.653       0             -5026.762      -767.29349    
     17100   290.55613     -5052.1054      0             -5026.604      -707.62299    
     17200   290.80641     -5051.8771      0             -5026.3537     -604.25571    
     17300   305.11654     -5053.1652      0             -5026.3859     -773.03374    
     17400   305.74396     -5053.0336      0             -5026.1991     -730.38016    
     17500   298.34547     -5052.3046      0             -5026.1195     -609.24137    
     17600   294.01427     -5051.8311      0             -5026.0262     -774.16237    
     17700   302.6541      -5052.3533      0             -5025.7901     -747.73775    
     17800   298.13611     -5051.8751      0             -5025.7084     -620.32933    
     17900   298.73851     -5051.8         0             -5025.5804     -779.41398    
     18000   300.25186     -5051.7173      0             -5025.3649     -773.43677    
     18100   293.81017     -5050.9954      0             -5025.2084     -632.42143    
     18200   294.32198     -5050.9495      0             -5025.1176     -781.78736    
     18300   314.34133     -5052.383       0             -5024.794      -777.09882    
     18400   296.0786      -5050.8757      0             -5024.8896     -664.58413    
     18500   292.59049     -5050.4603      0             -5024.7803     -771.91943    
     18600   301.56794     -5051.0571      0             -5024.5892     -774.98764    
     18700   303.52271     -5051.0541      0             -5024.4146     -674.118      
     18800   299.71279     -5050.5844      0             -5024.2793     -773.90842    
     18900   296.3663      -5050.1865      0             -5024.1751     -797.9072     
     19000   293.15881     -5049.7604      0             -5024.0305     -707.83296    
     19100   294.1294      -5049.5764      0             -5023.7614     -739.79972    
     19200   303.21108     -5050.2466      0             -5023.6345     -794.83603    
     19300   300.94947     -5049.9732      0             -5023.5596     -734.21541    
     19400   302.22993     -5049.8896      0             -5023.3636     -728.57102    
     19500   318.8223      -5051.3291      0             -5023.3469     -822.23959    
     19600   298.45409     -5049.3843      0             -5023.1897     -791.63452    
     19700   302.4781      -5049.4568      0             -5022.909      -699.45922    
     19800   293.67753     -5048.6348      0             -5022.8594     -825.26074    
     19900   300.13941     -5049.0303      0             -5022.6878     -829.3275     
     20000   299.65838     -5048.8103      0             -5022.51       -682.0041     
     20100   303.53195     -5049.1258      0             -5022.4855     -829.33444    
     20200   292.35258     -5047.8616      0             -5022.2025     -870.6515     
     20300   304.51512     -5048.7963      0             -5022.0697     -674.02085    
     20400   309.42184     -5049.2335      0             -5022.0763     -809.62424    
     20500   304.34125     -5048.4793      0             -5021.768      -900.55389    
     20600   313.10147     -5049.1319      0             -5021.6518     -683.65961    
     20700   305.37012     -5048.3367      0             -5021.5351     -804.85113    
     20800   307.28495     -5048.142       0             -5021.1723     -914.45287    
     20900   300.96007     -5047.6453      0             -5021.2307     -703.66656    
     21000   304.20531     -5047.7626      0             -5021.0632     -803.72027    
     21100   297.2956      -5046.8156      0             -5020.7227     -933.75606    
     21200   302.31507     -5047.2315      0             -5020.6981     -726.57076    
     21300   301.3946      -5047.0528      0             -5020.6001     -796.82394    
     21400   296.70145     -5046.4975      0             -5020.4567     -934.70869    
     21500   296.22649     -5046.3083      0             -5020.3092     -753.4423     
     21600   287.35615     -5045.3183      0             -5020.0978     -798.00211    
     21700   299.53623     -5046.1319      0             -5019.8423     -918.45902    
     21800   299.1655      -5046.0467      0             -5019.7897     -784.47105    
     21900   295.93109     -5045.5931      0             -5019.6199     -775.77618    
     22000   293.71358     -5045.2123      0             -5019.4337     -923.85428    
     22100   286.8227      -5044.469       0             -5019.2953     -830.17507    
     22200   303.36516     -5045.7585      0             -5019.1328     -774.51263    
     22300   295.64213     -5044.9453      0             -5018.9975     -914.97344    
     22400   282.68261     -5043.6091      0             -5018.7987     -872.66075    
     22500   291.09492     -5044.1397      0             -5018.591      -773.90592    
     22600   298.47084     -5044.6469      0             -5018.4508     -936.92491    
     22700   297.5244      -5044.4179      0             -5018.3048     -887.02936    
     22800   286.82897     -5043.2845      0             -5018.1102     -778.85378    
     22900   303.56059     -5044.6256      0             -5017.9828     -914.63424    
     23000   308.47123     -5044.9027      0             -5017.8289     -921.05572    
     23100   300.0807      -5043.9732      0             -5017.6358     -766.01464    
     23200   315.73316     -5045.2402      0             -5017.5291     -934.73456    
     23300   306.81293     -5044.2683      0             -5017.3401     -922.74799    
     23400   295.0107      -5043.0733      0             -5017.181      -783.60442    
     23500   310.7105      -5044.1863      0             -5016.916      -914.80646    
     23600   296.60888     -5042.8424      0             -5016.8098     -968.57389    
     23700   308.13649     -5043.691       0             -5016.6466     -795.43249    
     23800   298.47878     -5042.7401      0             -5016.5434     -913.81892    
     23900   305.74216     -5043.181       0             -5016.3467     -975.17288    
     24000   312.77593     -5043.5409      0             -5016.0893     -808.44018    
     24100   312.48773     -5043.4194      0             -5015.993      -893.81433    
     24200   300.87162     -5042.2423      0             -5015.8356     -1010.2259    
     24300   312.92589     -5043.0726      0             -5015.6078     -817.52025    
     24400   302.61591     -5042.0758      0             -5015.5159     -887.74268    
     24500   295.44024     -5041.1703      0             -5015.2402     -1021.4522    
     24600   296.02659     -5041.0718      0             -5015.0903     -838.47952    
     24700   301.99592     -5041.4777      0             -5014.9722     -879.90095    
     24800   291.00436     -5040.3302      0             -5014.7894     -1024.32      
     24900   298.15403     -5040.8054      0             -5014.6371     -857.7486     
     25000   298.32711     -5040.706       0             -5014.5225     -875.96365    
     25100   298.84109     -5040.4451      0             -5014.2165     -1038.1277    
     25200   302.34034     -5040.5763      0             -5014.0406     -894.85464    
     25300   308.77747     -5040.9974      0             -5013.8967     -870.50118    
     25400   299.9887      -5039.9454      0             -5013.6161     -1042.1031    
     25500   304.49544     -5040.1668      0             -5013.4419     -913.84834    
     25600   294.97928     -5039.2545      0             -5013.3648     -871.44107    
     25700   296.37353     -5039.1833      0             -5013.1713     -1024.0736    
     25800   310.60079     -5040.3144      0             -5013.0537     -950.79204    
     25900   298.04432     -5039.0099      0             -5012.8513     -876.56851    
     26000   290.12225     -5038.0524      0             -5012.589      -1007.2803    
     26100   294.47051     -5038.2372      0             -5012.3922     -965.90654    
     26200   289.8129      -5037.6573      0             -5012.2211     -882.42216    
     26300   288.19171     -5037.3913      0             -5012.0974     -1002.5582    
     26400   306.91301     -5038.796       0             -5011.8589     -1008.945     
     26500   309.76973     -5038.8705      0             -5011.6828     -893.27358    
     26600   296.71156     -5037.6987      0             -5011.657      -1004.0548    
     26700   307.08879     -5038.3472      0             -5011.3948     -1023.6099    
     26800   304.34849     -5037.9097      0             -5011.1978     -905.78146    
     26900   292.13009     -5036.601       0             -5010.9614     -996.70551    
     27000   302.4992      -5037.3115      0             -5010.7619     -1040.2428    
     27100   294.85824     -5036.4476      0             -5010.5685     -911.70679    
     27200   303.35099     -5037.0364      0             -5010.412      -984.33335    
     27300   306.02823     -5037.062       0             -5010.2026     -1060.5765    
     27400   295.28785     -5036.0327      0             -5010.116      -933.59009    
     27500   299.00363     -5036.1386      0             -5009.8957     -959.05287    
     27600   289.93002     -5035.1559      0             -5009.7094     -1077.4561    
     27700   290.56114     -5034.9903      0             -5009.4885     -960.51252    
     27800   301.59806     -5035.7303      0             -5009.2598     -971.75342    
     27900   296.22154     -5035.1205      0             -5009.1219     -1080.1428    
     28000   305.9308      -5035.7141      0             -5008.8633     -980.84542    
     28100   307.6183      -5035.7394      0             -5008.7405     -962.89669    
     28200   311.71976     -5035.9139      0             -5008.555      -1098.4439    
     28300   301.96866     -5034.7563      0             -5008.2532     -992.42869    
     28400   307.68483     -5035.201       0             -5008.1963     -957.24331    
     28500   287.73677     -5033.269       0             -5008.015      -1117.7219    
     28600   304.84355     -5034.5229      0             -5007.7675     -1016.5821    
     28700   307.03653     -5034.4947      0             -5007.5469     -955.84196    
     28800   293.018       -5033.1329      0             -5007.4154     -1116.0197    
     28900   305.14583     -5033.8934      0             -5007.1115     -1042.6264    
     29000   295.55888     -5032.9618      0             -5007.0213     -959.96922    
     29100   306.09637     -5033.6531      0             -5006.7877     -1108.1223    
     29200   307.6925      -5033.5505      0             -5006.5451     -1048.9277    
     29300   303.11913     -5033.0748      0             -5006.4708     -966.30113    
     29400   296.70639     -5032.2724      0             -5006.2312     -1102.6843    
     29500   303.65675     -5032.6566      0             -5006.0054     -1078.0346    
     29600   291.5175      -5031.3725      0             -5005.7867     -983.23651    
     29700   304.87032     -5032.3149      0             -5005.5572     -1089.2859    
     29800   301.93631     -5031.8748      0             -5005.3746     -1109.0482    
     29900   305.83635     -5032.0996      0             -5005.2571     -1006.7957    
     30000   306.67959     -5031.9557      0             -5005.0391     -1084.9319    
     30100   305.67639     -5031.6448      0             -5004.8163     -1125.3992    
     30200   291.39057     -5030.2017      0             -5004.627      -1007.6133    
     30300   305.60592     -5031.2624      0             -5004.44       -1076.8664    
     30400   304.92929     -5030.9713      0             -5004.2084     -1132.9735    
     30500   304.91619     -5030.7245      0             -5003.9627     -1022.6933    
     30600   309.56505     -5030.9874      0             -5003.8177     -1080.3271    
     30700   308.41148     -5030.6095      0             -5003.5409     -1148.3804    
     30800   302.54966     -5029.9355      0             -5003.3814     -1054.9472    
     30900   296.42584     -5029.159       0             -5003.1424     -1059.8638    
     31000   300.26501     -5029.3742      0             -5003.0206     -1158.5939    
     31100   303.8457      -5029.5163      0             -5002.8485     -1070.0845    
     31200   293.68691     -5028.3711      0             -5002.5949     -1044.9483    
     31300   299.33923     -5028.6405      0             -5002.3682     -1153.115     
     31400   303.33776     -5028.7764      0             -5002.1532     -1086.3644    
     31500   290.12301     -5027.3779      0             -5001.9145     -1068.9879    
     31600   301.32986     -5028.2153      0             -5001.7683     -1152.2177    
     31700   292.38305     -5027.1615      0             -5001.4997     -1118.8356    
     31800   291.10313     -5026.9052      0             -5001.3557     -1060.0736    
     31900   291.26043     -5026.7397      0             -5001.1765     -1175.6398    
     32000   299.95437     -5027.2574      0             -5000.9312     -1127.7242    
     32100   300.94641     -5027.1268      0             -5000.7134     -1050.0702    
     32200   295.82407     -5026.5116      0             -5000.5478     -1177.3371    
     32300   300.86374     -5026.5895      0             -5000.1834     -1145.7584    
     32400   302.40425     -5026.5547      0             -5000.0134     -1052.9281    
     32500   309.44491     -5027.0909      0             -4999.9317     -1200.4478    
     32600   306.7148      -5026.5296      0             -4999.6099     -1162.1858    
     32700   298.06645     -5025.6239      0             -4999.4633     -1064.4905    
     32800   293.64008     -5025.1153      0             -4999.3432     -1191.84      
     32900   304.46268     -5025.7133      0             -4998.9913     -1168.8468    
     33000   301.62448     -5025.3029      0             -4998.8301     -1077.3645    
     33100   292.91757     -5024.2823      0             -4998.5736     -1177.9932    
     33200   295.67104     -5024.2379      0             -4998.2876     -1196.0619    
     33300   287.56064     -5023.3575      0             -4998.119      -1077.5254    
     33400   306.49232     -5024.7964      0             -4997.8963     -1179.8378    
     33500   290.67213     -5023.1792      0             -4997.6676     -1206.1783    
     33600   298.48223     -5023.7447      0             -4997.5476     -1098.5506    
     33700   305.33719     -5024.1722      0             -4997.3735     -1181.1109    
     33800   294.53299     -5022.9136      0             -4997.0631     -1235.1196    
     33900   296.51237     -5022.8922      0             -4996.8681     -1104.6397    
     34000   298.92992     -5022.9263      0             -4996.6899     -1173.9898    
     34100   308.04932     -5023.395       0             -4996.3582     -1263.6695    
     34200   301.48468     -5022.6082      0             -4996.1476     -1089.0827    
     34300   298.75641     -5022.1868      0             -4995.9656     -1175.7751    
     34400   299.91654     -5022.0227      0             -4995.6997     -1259.999     
     34500   307.46047     -5022.4859      0             -4995.5008     -1122.1897    
     34600   305.00211     -5022.1668      0             -4995.3975     -1168.1635    
     34700   286.91031     -5020.1572      0             -4994.9758     -1266.5666    
     34800   291.49346     -5020.3996      0             -4994.8159     -1145.2696    
     34900   310.43079     -5021.8809      0             -4994.6352     -1177.7133    
     35000   305.08212     -5021.0877      0             -4994.3113     -1272.7367    
     35100   297.75222     -5020.2919      0             -4994.1589     -1165.3016    
     35200   295.1924      -5019.9246      0             -4994.0162     -1183.5895    
     35300   296.25942     -5019.7453      0             -4993.7433     -1260.9486    
     35400   287.25241     -5018.7734      0             -4993.5619     -1187.3341    
     35500   297.39685     -5019.4082      0             -4993.3063     -1165.9631    
     35600   303.33411     -5019.6806      0             -4993.0577     -1288.4514    
     35700   299.13942     -5019.0799      0             -4992.8251     -1221.5411    
     35800   306.01144     -5019.4329      0             -4992.575      -1160.6234    
     35900   293.05087     -5018.0259      0             -4992.3055     -1272.9006    
     36000   297.43585     -5018.18        0             -4992.0748     -1241.7959    
     36100   305.77709     -5018.7681      0             -4991.9308     -1162.1311    
     36200   301.07882     -5018.146       0             -4991.721      -1278.6305    
     36300   306.3841      -5018.3468      0             -4991.4562     -1260.8612    
     36400   298.1257      -5017.3192      0             -4991.1535     -1157.531     
     36500   301.09192     -5017.3428      0             -4990.9167     -1289.6251    
     36600   295.41674     -5016.5901      0             -4990.662      -1257.3188    
     36700   303.23363     -5017.0693      0             -4990.4552     -1172.7882    
     36800   304.40046     -5016.9211      0             -4990.2046     -1283.3105    
     36900   299.07056     -5016.1864      0             -4989.9377     -1265.574     
     37000   303.9377      -5016.5486      0             -4989.8727     -1200.1985    
     37100   299.12012     -5015.8127      0             -4989.5596     -1292.2674    
     37200   295.68032     -5015.2522      0             -4989.301      -1278.3603    
     37300   296.77309     -5015.1736      0             -4989.1265     -1191.1105    
     37400   300.54659     -5015.1418      0             -4988.7635     -1271.4814    
     37500   297.76655     -5014.725       0             -4988.5908     -1306.7363    
     37600   297.90888     -5014.5338      0             -4988.387      -1218.4828    
     37700   306.35039     -5014.9587      0             -4988.071      -1258.631     
     37800   288.5994      -5013.2182      0             -4987.8885     -1340.9986    
     37900   312.44302     -5015.1322      0             -4987.7099     -1230.133     
     38000   291.73994     -5013.1163      0             -4987.511      -1246.3002    
     38100   293.3741      -5012.9293      0             -4987.1806     -1340.3204    
     38200   302.83031     -5013.4697      0             -4986.891      -1228.4362    
     38300   297.25265     -5012.7317      0             -4986.6426     -1268.2195    
     38400   289.3811      -5011.8483      0             -4986.4501     -1337.1722    
     38500   302.50589     -5012.7837      0             -4986.2335     -1275.7184    
     38600   297.50495     -5012.1164      0             -4986.0051     -1264.3823    
     38700   290.8241      -5011.2834      0             -4985.7585     -1330.596     
     38800   296.08171     -5011.5618      0             -4985.5754     -1296.3723    
     38900   304.95044     -5011.9923      0             -4985.2275     -1244.3753    
     39000   288.03134     -5010.2975      0             -4985.0177     -1346.7277    
     39100   298.54123     -5010.9814      0             -4984.7791     -1320.43      
     39200   298.39218     -5010.6947      0             -4984.5055     -1237.0392    
     39300   281.7236      -5009.0908      0             -4984.3646     -1354.0105    
     39400   299.76103     -5010.3048      0             -4983.9954     -1332.6111    
     39500   310.09455     -5011.0234      0             -4983.8071     -1246.3561    
     39600   302.64868     -5010.1756      0             -4983.6128     -1350.8418    
     39700   298.33288     -5009.525       0             -4983.341      -1363.3499    
     39800   297.71359     -5009.1886      0             -4983.0589     -1266.7464    
     39900   302.48975     -5009.4071      0             -4982.8583     -1344.5976    
     40000   303.91502     -5009.1188      0             -4982.4449     -1375.6728    
     40100   309.64926     -5009.4873      0             -4982.3101     -1262.5618    
     40200   294.1931      -5007.8329      0             -4982.0123     -1353.2457    
     40300   290.62281     -5007.2164      0             -4981.7091     -1378.9954    
     40400   304.3578      -5008.376       0             -4981.6633     -1291.5226    
     40500   292.41059     -5006.9696      0             -4981.3054     -1355.0697    
     40600   303.45361     -5007.7722      0             -4981.1388     -1381.8609    
     40700   296.60069     -5006.8401      0             -4980.8081     -1321.5247    
     40800   299.65748     -5006.8142      0             -4980.514      -1335.6285    
     40900   294.79573     -5006.2257      0             -4980.3522     -1405.5261    
     41000   298.70297     -5006.2566      0             -4980.0402     -1317.1863    
     41100   299.98041     -5006.1862      0             -4979.8576     -1338.2388    
     41200   301.29125     -5006.0148      0             -4979.5712     -1429.238     
     41300   308.51307     -5006.4454      0             -4979.3679     -1331.0171    
     41400   302.09995     -5005.6465      0             -4979.1319     -1308.7226    
     41500   289.00725     -5004.1382      0             -4978.7728     -1431.3478    
     41600   310.55291     -5005.7696      0             -4978.5131     -1352.0533    
     41700   303.63309     -5004.9018      0             -4978.2527     -1326.1355    
     41800   298.56437     -5004.2474      0             -4978.0431     -1441.8991    
     41900   312.84657     -5005.1429      0             -4977.6851     -1373.2947    
     42000   305.536       -5004.3806      0             -4977.5644     -1334.7671    
     42100   301.72778     -5003.794       0             -4977.3121     -1423.7301    
     42200   300.49308     -5003.4606      0             -4977.087      -1372.3165    
     42300   305.09518     -5003.5135      0             -4976.736      -1320.6787    
     42400   305.3214      -5003.2339      0             -4976.4365     -1437.4432    
     42500   292.64231     -5001.8915      0             -4976.207      -1397.0891    
     42600   285.91829     -5000.9885      0             -4975.8941     -1343.7578    
     42700   304.54302     -5002.3412      0             -4975.6122     -1428.0133    
     42800   301.30555     -5001.92        0             -4975.4751     -1404.1372    
     42900   305.07995     -5001.9509      0             -4975.1748     -1341.7241    
     43000   302.60884     -5001.5182      0             -4974.9589     -1419.6757    
     43100   286.9545      -4999.83        0             -4974.6446     -1444.239     
     43200   297.78427     -5000.4416      0             -4974.3058     -1348.416     
     43300   300.35152     -5000.4265      0             -4974.0654     -1433.3994    
     43400   306.5715      -5000.6854      0             -4973.7784     -1484.3072    
     43500   301.55477     -5000.0409      0             -4973.5742     -1342.0323    
     43600   292.77289     -4999.0835      0             -4973.3875     -1418.4673    
     43700   301.13184     -4999.4394      0             -4973.0097     -1466.5998    
     43800   301.70733     -4999.3003      0             -4972.8202     -1367.1446    
     43900   295.68827     -4998.4987      0             -4972.5468     -1418.0909    
     44000   301.29588     -4998.6684      0             -4972.2244     -1482.5706    
     44100   303.86071     -4998.6686      0             -4971.9995     -1415.5668    
     44200   296.15076     -4997.6878      0             -4971.6953     -1398.4947    
     44300   298.70126     -4997.6638      0             -4971.4475     -1487.3185    
     44400   297.87199     -4997.26        0             -4971.1165     -1409.9151    
     44500   287.68417     -4996.1695      0             -4970.9201     -1398.0629    
     44600   296.96708     -4996.8068      0             -4970.7427     -1505.8322    
     44700   298.11855     -4996.5554      0             -4970.3903     -1436.1087    
     44800   285.44249     -4995.1353      0             -4970.0826     -1420.031     
     44900   290.0089      -4995.3411      0             -4969.8877     -1492.4993    
     45000   295.78648     -4995.5046      0             -4969.5442     -1458.5525    
     45100   296.78953     -4995.3128      0             -4969.2643     -1385.3452    
     45200   298.19332     -4995.2065      0             -4969.0348     -1512.5888    
     45300   310.80035     -4995.969       0             -4968.6908     -1473.9209    
     45400   297.47011     -4994.6788      0             -4968.5705     -1410.2976    
     45500   287.13012     -4993.4527      0             -4968.2519     -1503.2757    
     45600   299.57424     -4994.2081      0             -4967.9151     -1481.1189    
     45700   297.81906     -4993.7965      0             -4967.6577     -1432.3014    
     45800   292.37327     -4993.1172      0             -4967.4563     -1475.4093    
     45900   292.83342     -4992.8374      0             -4967.1361     -1497.6956    
     46000   302.07903     -4993.3605      0             -4966.8477     -1437.4012    
     46100   302.80531     -4993.1257      0             -4966.5491     -1488.7064    
     46200   305.51323     -4993.1654      0             -4966.3512     -1504.6582    
     46300   302.11281     -4992.5699      0             -4966.0542     -1455.0203    
     46400   301.00245     -4992.223       0             -4965.8047     -1486.1703    
     46500   302.27945     -4991.9708      0             -4965.4405     -1502.0134    
     46600   305.48855     -4991.9524      0             -4965.1404     -1478.8183    
     46700   292.27714     -4990.56        0             -4964.9075     -1477.2204    
     46800   295.83938     -4990.6609      0             -4964.6957     -1513.4189    
     46900   303.51164     -4991.0581      0             -4964.4196     -1489.0653    
     47000   306.63619     -4991.0049      0             -4964.0922     -1473.3262    
     47100   310.05732     -4991.0897      0             -4963.8767     -1541.9923    
     47200   290.0151      -4989.0138      0             -4963.5599     -1490.696     
     47300   291.89919     -4988.9644      0             -4963.3451     -1471.3279    
     47400   290.11388     -4988.4405      0             -4962.9779     -1534.2442    
     47500   295.42571     -4988.6666      0             -4962.7378     -1527.5165    
     47600   296.41196     -4988.3965      0             -4962.3811     -1490.0282    
     47700   296.08869     -4988.1414      0             -4962.1544     -1535.4279    
     47800   299.21072     -4988.1519      0             -4961.8908     -1560.9276    
     47900   308.58347     -4988.7131      0             -4961.6295     -1463.9886    
     48000   295.57709     -4987.2642      0             -4961.3221     -1552.4114    
     48100   304.83739     -4987.7561      0             -4961.0012     -1537.6647    
     48200   302.87347     -4987.3918      0             -4960.8093     -1465.1279    
     48300   307.04839     -4987.4749      0             -4960.526      -1564.6984    
     48400   303.25867     -4986.6945      0             -4960.0782     -1569.5498    
     48500   300.69391     -4986.3325      0             -4959.9413     -1501.1455    
     48600   311.35499     -4986.9105      0             -4959.5836     -1544.5348    
     48700   305.46792     -4986.1177      0             -4959.3075     -1565.8903    
     48800   295.77563     -4985.0147      0             -4959.0551     -1487.4936    
     48900   295.34911     -4984.6756      0             -4958.7535     -1561.0922    
     49000   298.64793     -4984.6709      0             -4958.4593     -1580.0349    
     49100   296.13577     -4984.1877      0             -4958.1965     -1509.5732    
     49200   298.23011     -4984.1417      0             -4957.9668     -1574.4021    
     49300   298.47387     -4983.7302      0             -4957.5339     -1560.9928    
     49400   306.9083      -4984.292       0             -4957.3553     -1524.3034    
     49500   298.33942     -4983.2259      0             -4957.0413     -1565.1003    
     49600   303.17844     -4983.4272      0             -4956.818      -1578.5037    
     49700   288.511       -4981.8594      0             -4956.5375     -1539.9032    
     49800   298.57675     -4982.3657      0             -4956.1604     -1552.8436    
     49900   291.80565     -4981.4902      0             -4955.8792     -1597.3989    
     50000   304.3653      -4982.3192      0             -4955.6058     -1552.5258    
     50100   299.47268     -4981.5784      0             -4955.2944     -1550.8656    
     50200   292.84372     -4980.7071      0             -4955.0049     -1582.1058    
     50300   310.06214     -4981.9749      0             -4954.7615     -1575.8165    
     50400   301.49349     -4980.9262      0             -4954.4648     -1553.1746    
     50500   309.54985     -4981.3679      0             -4954.1994     -1605.3124    
     50600   281.07281     -4978.4981      0             -4953.829      -1608.8346    
     50700   302.76607     -4980.1247      0             -4953.5516     -1570.9095    
     50800   306.15362     -4980.0854      0             -4953.215      -1587.0275    
     50900   296.55188     -4978.9151      0             -4952.8874     -1607.4371    
     51000   308.53477     -4979.7132      0             -4952.6339     -1560.9687    
     51100   297.23535     -4978.441       0             -4952.3534     -1580.7201    
     51200   306.55205     -4979.0538      0             -4952.1484     -1635.1968    
     51300   285.71944     -4976.9076      0             -4951.8307     -1569.2964    
     51400   306.51287     -4978.485       0             -4951.5831     -1596.8146    
     51500   292.92806     -4976.8282      0             -4951.1186     -1639.707     
     51600   290.22387     -4976.3305      0             -4950.8582     -1580.6855    
     51700   306.23541     -4977.4897      0             -4950.6121     -1586.4648    
     51800   291.08975     -4975.7466      0             -4950.1983     -1624.4294    
     51900   293.87427     -4975.8605      0             -4950.0678     -1591.7035    
     52000   307.16687     -4976.754       0             -4949.7947     -1605.3939    
     52100   302.05522     -4975.9911      0             -4949.4804     -1652.4092    
     52200   308.71076     -4976.307       0             -4949.2122     -1612.9027    
     52300   312.00701     -4976.1955      0             -4948.8114     -1601.7765    
     52400   298.25715     -4974.6651      0             -4948.4878     -1630.7171    
     52500   300.17407     -4974.4894      0             -4948.1439     -1630.9344    
     52600   299.83713     -4974.1573      0             -4947.8413     -1588.2671    
     52700   303.91203     -4974.2923      0             -4947.6187     -1637.4732    
     52800   289.69123     -4972.7278      0             -4947.3023     -1656.5719    
     52900   300.68509     -4973.5085      0             -4947.1181     -1604.3238    
     53000   291.67725     -4972.4041      0             -4946.8042     -1655.6722    
     53100   292.89074     -4972.15        0             -4946.4436     -1646.5756    
     53200   296.02911     -4972.0702      0             -4946.0884     -1603.3471    
     53300   298.64718     -4971.9405      0             -4945.7289     -1647.8235    
     53400   308.29021     -4972.5916      0             -4945.5337     -1667.7801    
     53500   297.09804     -4971.2354      0             -4945.1598     -1625.3052    
     53600   301.91669     -4971.4547      0             -4944.9562     -1643.655     
     53700   297.20235     -4970.7461      0             -4944.6613     -1699.0485    
     53800   298.20976     -4970.4843      0             -4944.3111     -1629.1262    
     53900   300.2208      -4970.404       0             -4944.0543     -1634.9464    
     54000   298.85217     -4969.8722      0             -4943.6427     -1698.2029    
     54100   300.11654     -4969.6494      0             -4943.3089     -1644.8647    
     54200   304.14053     -4969.7646      0             -4943.0709     -1640.1976    
     54300   303.69962     -4969.3504      0             -4942.6954     -1710.9756    
     54400   310.70765     -4969.775       0             -4942.5049     -1662.356     
     54500   306.36892     -4969.1005      0             -4942.2112     -1644.4893    
     54600   306.80187     -4968.8311      0             -4941.9038     -1710.5697    
     54700   294.34571     -4967.4045      0             -4941.5705     -1657.9894    
     54800   302.22293     -4967.8147      0             -4941.2893     -1640.0994    
     54900   307.5701      -4967.933       0             -4940.9383     -1720.3245    
     55000   302.83773     -4967.1301      0             -4940.5507     -1671.8402    
     55100   296.1336      -4966.2836      0             -4940.2926     -1654.7262    
     55200   306.84493     -4966.8459      0             -4939.9148     -1741.8761    
     55300   314.43371     -4967.3257      0             -4939.7286     -1692.2938    
     55400   297.52592     -4965.5171      0             -4939.404      -1650.1378    
     55500   295.83866     -4964.9958      0             -4939.0307     -1732.9418    
     55600   302.20727     -4965.2494      0             -4938.7254     -1696.1783    
     55700   299.02153     -4964.6702      0             -4938.4257     -1665.8741    
     55800   290.64194     -4963.6465      0             -4938.1376     -1733.3474    
     55900   299.05819     -4964.0956      0             -4937.8479     -1693.8228    
     56000   296.89715     -4963.5201      0             -4937.4622     -1691.6929    
     56100   296.33497     -4963.234       0             -4937.2254     -1732.511     
     56200   296.6067      -4962.9709      0             -4936.9384     -1717.3533    
     56300   297.77888     -4962.7676      0             -4936.6323     -1678.9079    
     56400   296.16682     -4962.2939      0             -4936.3        -1710.2375    
     56500   292.13064     -4961.523       0             -4935.8834     -1732.1061    
     56600   293.28078     -4961.3843      0             -4935.6438     -1703.5376    
     56700   295.81913     -4961.2889      0             -4935.3256     -1722.7593    
     56800   293.95718     -4960.7938      0             -4934.9939     -1741.8225    
     56900   307.04597     -4961.7061      0             -4934.7574     -1705.5292    
     57000   300.56157     -4960.7285      0             -4934.3489     -1710.0394    
     57100   294.06339     -4959.9428      0             -4934.1336     -1743.9703    
     57200   304.98687     -4960.5685      0             -4933.8005     -1709.8936    
     57300   303.21065     -4959.9899      0             -4933.3778     -1713.6063    
     57400   291.56535     -4958.7388      0             -4933.1488     -1757.9167    
     57500   304.63515     -4959.5254      0             -4932.7883     -1744.5458    
     57600   301.10959     -4958.8935      0             -4932.4658     -1731.0836    
     57700   293.35603     -4957.9026      0             -4932.1554     -1773.613     
     57800   306.80122     -4958.8261      0             -4931.8989     -1748.8309    
     57900   299.54692     -4957.8022      0             -4931.5117     -1705.7623    
     58000   292.50833     -4956.9107      0             -4931.238      -1753.0732    
     58100   303.18115     -4957.5023      0             -4930.8928     -1765.1101    
     58200   311.88826     -4957.9655      0             -4930.5918     -1728.3266    
     58300   308.13347     -4957.3203      0             -4930.2762     -1769.8593    
     58400   295.148       -4955.7857      0             -4929.8812     -1788.4162    
     58500   295.33317     -4955.5636      0             -4929.6429     -1740.8517    
     58600   306.98208     -4956.2713      0             -4929.3282     -1762.7051    
     58700   296.24299     -4955.0483      0             -4929.0478     -1797.3106    
     58800   291.97082     -4954.29        0             -4928.6644     -1737.3798    
     58900   305.08938     -4955.1181      0             -4928.3411     -1750.028     
     59000   301.89882     -4954.54        0             -4928.0431     -1807.6807    
     59100   285.20839     -4952.7409      0             -4927.7089     -1759.4652    
     59200   312.45984     -4954.8497      0             -4927.4258     -1755.5438    
     59300   298.79625     -4953.2941      0             -4927.0695     -1793.0072    
     59400   304.44517     -4953.5093      0             -4926.7889     -1763.7235    
     59500   306.94559     -4953.3467      0             -4926.4068     -1763.32      
     59600   299.74837     -4952.3921      0             -4926.0839     -1808.4859    
     59700   301.87551     -4952.2181      0             -4925.7232     -1792.802     
     59800   291.13293     -4950.952       0             -4925.4        -1765.0036    
     59900   290.75686     -4950.5795      0             -4925.0605     -1810.887     
     60000   294.02674     -4950.4978      0             -4924.6918     -1822.1431    
     60100   306.6298      -4951.4197      0             -4924.5075     -1746.6778    
     60200   294.83496     -4950.0498      0             -4924.1729     -1802.6992    
     60300   305.76533     -4950.6938      0             -4923.8575     -1809.5804    
     60400   312.40006     -4950.8977      0             -4923.4791     -1767.7282    
     60500   303.34002     -4949.7171      0             -4923.0937     -1823.3977    
     60600   295.14914     -4948.6786      0             -4922.7741     -1840.2405    
     60700   289.09342     -4947.7702      0             -4922.3971     -1786.1806    
     60800   310.22594     -4949.3938      0             -4922.166      -1817.268     
     60900   311.77358     -4949.2117      0             -4921.848      -1845.9285    
     61000   308.27549     -4948.566       0             -4921.5094     -1778.8122    
     61100   304.38201     -4947.9216      0             -4921.2067     -1812.8247    
     61200   299.65992     -4947.1266      0             -4920.8262     -1848.7675    
     61300   297.82498     -4946.6239      0             -4920.4845     -1772.4955    
     61400   300.92953     -4946.5961      0             -4920.1842     -1835.898     
     61500   285.47689     -4944.8253      0             -4919.7697     -1869.3365    
     61600   298.3602      -4945.6189      0             -4919.4325     -1791.23      
     61700   297.9067      -4945.3895      0             -4919.2429     -1830.8272    
     61800   303.98861     -4945.554       0             -4918.8736     -1869.2918    
     61900   306.70074     -4945.5078      0             -4918.5894     -1800.8175    
     62000   296.48729     -4944.2989      0             -4918.2769     -1832.0493    
     62100   287.77971     -4943.0584      0             -4917.8006     -1875.1456    
     62200   300.5342      -4943.7824      0             -4917.4053     -1829.1939    
     62300   306.1254      -4943.982       0             -4917.1141     -1831.7176    
     62400   299.91126     -4943.1389      0             -4916.8164     -1880.5325    
     62500   292.14127     -4942.1403      0             -4916.4998     -1829.5757    
     62600   304.10264     -4942.9321      0             -4916.2417     -1831.4162    
     62700   313.84364     -4943.4061      0             -4915.8607     -1882.7184    
     62800   287.75087     -4940.8252      0             -4915.57       -1871.2131    
     62900   284.72367     -4940.1787      0             -4915.1892     -1822.5607    
     63000   285.62814     -4939.8038      0             -4914.7349     -1877.2299    
     63100   303.67285     -4941.0105      0             -4914.3578     -1865.398     
     63200   289.74406     -4939.5021      0             -4914.0719     -1840.5068    
     63300   291.70832     -4939.4344      0             -4913.8318     -1888.8932    
     63400   303.89221     -4940.0829      0             -4913.411      -1880.4076    
     63500   305.13646     -4939.9772      0             -4913.1961     -1832.5385    
     63600   305.63695     -4939.6568      0             -4912.8318     -1910.154     
     63700   303.22821     -4939.0462      0             -4912.4325     -1891.7231    
     63800   293.09678     -4937.8996      0             -4912.1752     -1837.8644    
     63900   299.46525     -4938.0191      0             -4911.7357     -1888.3751    
     64000   301.15804     -4937.7407      0             -4911.3088     -1892.3142    
     64100   290.28656     -4936.5757      0             -4911.098      -1846.3751    
     64200   304.18425     -4937.4375      0             -4910.7399     -1889.4706    
     64300   291.87632     -4936.0706      0             -4910.4533     -1912.9621    
     64400   292.23325     -4935.7027      0             -4910.0541     -1866.0846    
     64500   291.35334     -4935.3316      0             -4909.7602     -1893.4619    
     64600   295.8967      -4935.2902      0             -4909.32       -1944.1299    
     64700   301.05515     -4935.476       0             -4909.0531     -1857.9818    
     64800   306.11058     -4935.524       0             -4908.6574     -1875.7936    
     64900   308.62988     -4935.372       0             -4908.2843     -1953.455     
     65000   294.9751      -4933.9002      0             -4908.0109     -1889.8855    
     65100   306.87898     -4934.6281      0             -4907.6941     -1888.6186    
     65200   290.93894     -4932.8588      0             -4907.3237     -1949.452     
     65300   308.21451     -4934.0867      0             -4907.0354     -1898.4323    
     65400   309.54027     -4933.7364      0             -4906.5687     -1896.3937    
     65500   298.21606     -4932.3784      0             -4906.2047     -1954.7548    
     65600   306.80696     -4932.8306      0             -4905.9029     -1905.1958    
     65700   295.98445     -4931.5127      0             -4905.5348     -1893.7053    
     65800   298.85606     -4931.4084      0             -4905.1785     -1950.1356    
     65900   313.52312     -4932.4272      0             -4904.9101     -1927.653     
     66000   295.32426     -4930.5193      0             -4904.5994     -1899.9484    
     66100   305.38282     -4931.0385      0             -4904.2357     -1952.2006    
     66200   298.11607     -4930.0009      0             -4903.836      -1926.8765    
     66300   304.82091     -4930.1763      0             -4903.4229     -1907.54      
     66400   295.7328      -4929.0462      0             -4903.0904     -1955.6508    
     66500   293.61756     -4928.5691      0             -4902.799      -1929.902     
     66600   304.53457     -4929.191       0             -4902.4627     -1902.607     
     66700   297.51946     -4928.1434      0             -4902.0309     -1955.5853    
     66800   300.71663     -4928.0982      0             -4901.705      -1962.754     
     66900   308.81688     -4928.5193      0             -4901.4152     -1902.2015    
     67000   308.86537     -4928.1096      0             -4901.0012     -1970.3567    
     67100   299.66662     -4926.9299      0             -4900.6288     -1956.7276    
     67200   301.58116     -4926.7198      0             -4900.2507     -1908.2311    
     67300   294.6119      -4925.7849      0             -4899.9275     -1973.1455    
     67400   301.8601      -4926.1983      0             -4899.7048     -1990.8149    
     67500   304.95473     -4926.0371      0             -4899.272      -1936.5742    
     67600   306.32853     -4925.7914      0             -4898.9057     -1956.2274    
     67700   293.7902      -4924.2687      0             -4898.4834     -2007.8496    
     67800   301.33113     -4924.5623      0             -4898.1152     -1950.0904    
     67900   296.91664     -4923.8238      0             -4897.7641     -1947.6177    
     68000   303.64981     -4924.0465      0             -4897.3959     -1991.7076    
     68100   303.62392     -4923.7044      0             -4897.0561     -1963.2406    
     68200   299.12672     -4923.0002      0             -4896.7466     -1949.4772    
     68300   296.43467     -4922.4599      0             -4896.4425     -2000.5949    
     68400   290.70557     -4921.552       0             -4896.0375     -1968.1134    
     68500   308.36315     -4922.7149      0             -4895.6506     -1957.3359    
     68600   289.01074     -4920.5995      0             -4895.2337     -2005.2423    
     68700   293.36842     -4920.6656      0             -4894.9173     -1977.0635    
     68800   306.13876     -4921.5103      0             -4894.6412     -1953.571     
     68900   293.11805     -4919.9474      0             -4894.2211     -1999.6523    
     69000   298.62744     -4920.1752      0             -4893.9654     -2006.5665    
     69100   292.36211     -4919.2479      0             -4893.588      -1965.855     
     69200   300.19383     -4919.5726      0             -4893.2253     -2003.7494    
     69300   303.18195     -4919.4417      0             -4892.8322     -2003.0528    
     69400   302.42459     -4918.9035      0             -4892.3604     -1960.2516    
     69500   289.21922     -4917.4468      0             -4892.0627     -1994.209     
     69600   284.16169     -4916.6433      0             -4891.7031     -2035.7112    
     69700   299.93583     -4917.6984      0             -4891.3737     -1977.532     
     69800   307.70688     -4918.1081      0             -4891.1014     -2007.5282    
     69900   297.21701     -4916.7052      0             -4890.6192     -2044.2074    
     70000   297.99528     -4916.5083      0             -4890.354      -1982.0543    
     70100   303.66317     -4916.5644      0             -4889.9126     -2012.0181    
     70200   302.82063     -4916.1175      0             -4889.5397     -2042.6069    
     70300   294.50137     -4914.9268      0             -4889.0791     -1994.1964    
     70400   308.30485     -4915.8138      0             -4888.7546     -2011.9551    
     70500   291.40074     -4913.9944      0             -4888.4189     -2058.3514    
     70600   301.00387     -4914.5453      0             -4888.1269     -2008.4284    
     70700   295.7305      -4913.7362      0             -4887.7807     -2005.5946    
     70800   303.53774     -4914.0525      0             -4887.4117     -2048.0593    
     70900   297.07334     -4913.0777      0             -4887.0043     -2015.4354    
     71000   308.34238     -4913.6848      0             -4886.6223     -1993.3365    
     71100   290.56279     -4911.7919      0             -4886.2899     -2071.5197    
     71200   304.60119     -4912.5539      0             -4885.8197     -2030.8639    
     71300   290.41936     -4911.0075      0             -4885.518      -2014.2932    
     71400   301.40939     -4911.6577      0             -4885.2037     -2087.4047    
     71500   309.81612     -4911.9283      0             -4884.7365     -2064.204     
     71600   304.62501     -4911.2318      0             -4884.4956     -2003.7045    
     71700   292.88811     -4909.8016      0             -4884.0955     -2076.4803    
     71800   307.56401     -4910.6747      0             -4883.6805     -2063.5898    
     71900   295.09545     -4909.1961      0             -4883.2963     -2013.3799    
     72000   294.91917     -4908.8165      0             -4882.9322     -2064.9832    
     72100   289.31568     -4907.9937      0             -4882.6011     -2083.1975    
     72200   302.37596     -4908.743       0             -4882.2042     -2041.2137    
     72300   298.82213     -4908.1446      0             -4881.9177     -2043.07      
     72400   307.08661     -4908.475       0             -4881.5227     -2081.3486    
     72500   293.71543     -4906.8591      0             -4881.0804     -2049.165     
     72600   294.15053     -4906.5044      0             -4880.6875     -2059.5962    
     72700   299.01951     -4906.5393      0             -4880.2951     -2108.6424    
     72800   293.83956     -4905.7904      0             -4880.0008     -2055.3664    
     72900   305.31482     -4906.4258      0             -4879.629      -2073.7739    
     73000   299.77343     -4905.582       0             -4879.2716     -2101.3354    
     73100   301.68788     -4905.3814      0             -4878.9029     -2036.0284    
     73200   313.88667     -4906.1138      0             -4878.5647     -2070.7644    
     73300   310.59499     -4905.3663      0             -4878.1061     -2123.0888    
     73400   293.95817     -4903.5546      0             -4877.7546     -2054.4801    
     73500   301.15935     -4903.8362      0             -4877.4042     -2063.7605    
     73600   309.07774     -4904.0941      0             -4876.9671     -2122.8071    
     73700   303.59524     -4903.2754      0             -4876.6296     -2080.4465    
     73800   305.46525     -4903.1284      0             -4876.3185     -2048.9529    
     73900   305.84025     -4902.6876      0             -4875.8447     -2120.9517    
     74000   288.71788     -4900.7942      0             -4875.4541     -2106.5112    
     74100   300.86565     -4901.465       0             -4875.0587     -2056.0765    
     74200   292.96195     -4900.3355      0             -4874.6229     -2120.2817    
     74300   296.15417     -4900.2722      0             -4874.2794     -2127.6442    
     74400   297.43747     -4900.073       0             -4873.9676     -2062.4858    
     74500   304.3766      -4900.3102      0             -4873.5958     -2126.4012    
     74600   292.86943     -4898.9226      0             -4873.2181     -2136.1726    
     74700   308.06523     -4899.9947      0             -4872.9566     -2072.3014    
     74800   300.62954     -4898.8385      0             -4872.453      -2129.1341    
     74900   303.36036     -4898.653       0             -4872.0278     -2127.4112    
     75000   306.08714     -4898.549       0             -4871.6844     -2081.5176    
     75100   299.50117     -4897.5488      0             -4871.2623     -2128.9058    
     75200   293.83145     -4896.6812      0             -4870.8923     -2164.9766    
     75300   300.48153     -4896.9361      0             -4870.5636     -2094.9237    
     75400   296.998       -4896.291       0             -4870.2242     -2113.2732    
     75500   288.4741      -4895.1955      0             -4869.8768     -2168.7921    
     75600   290.28114     -4894.9149      0             -4869.4376     -2094.6854    
     75700   300.39759     -4895.4456      0             -4869.0804     -2095.4018    
     75800   297.11794     -4894.68        0             -4868.6026     -2167.02      
     75900   305.51751     -4895.0058      0             -4868.1912     -2133.3472    
     76000   297.83422     -4894.0649      0             -4867.9247     -2093.3426    
     76100   297.47436     -4893.691       0             -4867.5824     -2174.8694    
     76200   298.93033     -4893.3523      0             -4867.1158     -2133.621     
     76300   288.38051     -4892.1669      0             -4866.8564     -2108.6424    
     76400   294.76425     -4892.3216      0             -4866.4508     -2177.474     
     76500   295.61359     -4891.8653      0             -4865.92       -2142.8624    
     76600   294.23154     -4891.4015      0             -4865.5775     -2116.9321    
     76700   295.59762     -4891.0916      0             -4865.1477     -2173.162     
     76800   296.66967     -4890.8868      0             -4864.8488     -2169.4699    
     76900   304.13015     -4891.1595      0             -4864.4667     -2113.4253    
     77000   301.87406     -4890.592       0             -4864.0972     -2169.4014    
     77100   302.0694      -4890.2086      0             -4863.6967     -2200.2599    
     77200   298.36974     -4889.4129      0             -4863.2256     -2111.6081    
     77300   306.83887     -4889.7952      0             -4862.8646     -2156.9016    
     77400   297.44036     -4888.5127      0             -4862.4071     -2211.3724    
     77500   300.37125     -4888.3636      0             -4862.0007     -2134.3368    
     77600   292.5735      -4887.4354      0             -4861.7569     -2153.5193    
     77700   301.52739     -4887.7316      0             -4861.2673     -2222.1239    
     77800   298.24505     -4887.1112      0             -4860.935      -2130.5527    
     77900   305.80382     -4887.5112      0             -4860.6715     -2152.1167    
     78000   301.70715     -4886.5913      0             -4860.1111     -2217.5904    
     78100   288.85123     -4885.1058      0             -4859.754      -2165.2044    
     78200   309.57742     -4886.584       0             -4859.4131     -2145.8714    
     78300   301.14911     -4885.4234      0             -4858.9923     -2218.8797    
     78400   314.53311     -4886.2159      0             -4858.6101     -2188.1138    
     78500   296.72335     -4884.2791      0             -4858.2364     -2148.5011    
     78600   291.86861     -4883.417       0             -4857.8004     -2206.7044    
     78700   303.33062     -4883.9889      0             -4857.3663     -2203.0016    
     78800   310.69094     -4884.3324      0             -4857.0638     -2150.2752    
     78900   292.14596     -4882.2096      0             -4856.5686     -2223.6075    
     79000   307.32317     -4883.1462      0             -4856.1732     -2200.0723    
     79100   303.90564     -4882.5216      0             -4855.8485     -2165.8796    
     79200   300.54007     -4881.8559      0             -4855.4782     -2223.8478    
     79300   307.22955     -4882.0061      0             -4855.0413     -2225.4142    
     79400   302.9469      -4881.2201      0             -4854.6312     -2153.6021    
     79500   313.71202     -4881.848       0             -4854.3142     -2226.7534    
     79600   301.83468     -4880.3635      0             -4853.8722     -2255.3638    
     79700   290.57805     -4878.9406      0             -4853.4373     -2162.5807    
     79800   312.17431     -4880.4377      0             -4853.0389     -2218.8098    
     79900   299.5275      -4878.9345      0             -4852.6457     -2263.6226    
     80000   302.77121     -4878.9325      0             -4852.359      -2149.9068    
     80100   309.95241     -4879.1785      0             -4851.9747     -2217.0972    
     80200   305.77023     -4878.3615      0             -4851.5247     -2257.2663    
     80300   290.69745     -4876.6174      0             -4851.1036     -2190.1311    
     80400   306.25557     -4877.6313      0             -4850.7519     -2196.2551    
     80500   298.4525      -4876.4706      0             -4850.2761     -2257.7105    
     80600   307.75475     -4876.9067      0             -4849.8958     -2194.4692    
     80700   290.36995     -4875.0588      0             -4849.5737     -2205.3685    
     80800   302.48675     -4875.7203      0             -4849.1718     -2277.8661    
     80900   301.02311     -4875.2327      0             -4848.8126     -2229.3471    
     81000   299.26096     -4874.6598      0             -4848.3944     -2198.9393    
     81100   297.98032     -4874.134       0             -4847.981      -2276.6799    
     81200   298.88068     -4873.724       0             -4847.4919     -2252.0046    
     81300   299.96722     -4873.4912      0             -4847.1638     -2208.7361    
     81400   293.09489     -4872.3947      0             -4846.6705     -2262.995     
     81500   301.41299     -4872.8313      0             -4846.377      -2244.6985    
     81600   297.21338     -4872.0672      0             -4845.9815     -2219.6363    
     81700   300.53968     -4871.994       0             -4845.6164     -2296.0873    
     81800   306.35878     -4872.0688      0             -4845.1804     -2264.3557    
     81900   287.54133     -4869.9589      0             -4844.7221     -2193.7313    
     82000   303.97934     -4870.9555      0             -4844.2759     -2264.7698    
     82100   305.19675     -4870.7455      0             -4843.9591     -2285.0656    
     82200   296.02569     -4869.4453      0             -4843.4639     -2221.4556    
     82300   297.3634      -4869.2182      0             -4843.1193     -2274.7286    
     82400   303.5908      -4869.3376      0             -4842.6922     -2295.7956    
     82500   304.36011     -4869.0438      0             -4842.3308     -2240.1322    
     82600   304.35641     -4868.699       0             -4841.9863     -2266.2773    
[...]
    263600   282.31447     -5015.7154      0             -4990.9373      72.077619    
    263700   291.71466     -5016.3314      0             -4990.7283      122.01962    
    263800   297.91244     -5016.7957      0             -4990.6486      144.87466    
    263900   304.46826     -5017.2336      0             -4990.5111      150.4957     
    264000   284.00511     -5015.7229      0             -4990.7965      99.959679    
    264100   275.1483      -5014.7382      0             -4990.5891      114.22903    
    264200   307.68819     -5017.7067      0             -4990.7017      82.322195    
    264300   325.1681      -5019.9681      0             -4991.4289      53.337884    
    264400   298.67997     -5017.9238      0             -4991.7094      4.1010815    
    264500   298.96559     -5017.7796      0             -4991.5401      12.678677    
    264600   311.66345     -5019.088       0             -4991.734      -81.258263    
    264700   320.48915     -5020.1573      0             -4992.0287     -98.623459    
    264800   294.33732     -5017.6744      0             -4991.8411     -136.94633    
    264900   298.79319     -5017.739       0             -4991.5146     -194.83463    
    265000   300.78267     -5018.0406      0             -4991.6417     -163.4022     
    265100   296.65834     -5017.3779      0             -4991.3409     -137.33608    
    265200   287.05192     -5016.0947      0             -4990.9008     -190.47206    
    265300   304.66231     -5017.8967      0             -4991.1572     -89.437792    
    265400   291.44331     -5016.5939      0             -4991.0146     -37.891077    
    265500   302.76881     -5017.7843      0             -4991.211      -78.114351    
    265600   305.55076     -5018.4616      0             -4991.6441      21.733203    
    265700   290.33969     -5017.1726      0             -4991.6902      36.402266    
    265800   305.85713     -5018.5422      0             -4991.6979      82.778839    
    265900   303.50416     -5018.4458      0             -4991.808       143.10052    
    266000   279.0949      -5016.1388      0             -4991.6433      145.8656     
    266100   298.4865      -5017.2758      0             -4991.0784      119.05462    
    266200   312.18585     -5018.5934      0             -4991.1935      133.85948    
    266300   308.11357     -5018.254       0             -4991.2116      90.365998    
    266400   301.40379     -5017.7279      0             -4991.2744      51.138207    
    266500   314.2072      -5019.1486      0             -4991.5714      33.64205     
    266600   292.87833     -5017.386       0             -4991.6807      4.3793176    
    266700   290.71771     -5017.2178      0             -4991.7022     -55.272793    
    266800   290.1449      -5017.0106      0             -4991.5453     -101.91042    
    266900   293.6696      -5017.1622      0             -4991.3875     -152.45188    
    267000   296.43245     -5017.2513      0             -4991.2341     -174.54839    
    267100   296.27222     -5016.8634      0             -4990.8603     -194.26726    
    267200   293.83596     -5016.3547      0             -4990.5654     -144.22875    
    267300   313.63972     -5017.8907      0             -4990.3633     -133.27911    
    267400   299.22718     -5016.8606      0             -4990.5982     -156.86271    
    267500   300.67425     -5017.1464      0             -4990.7569     -70.363209    
    267600   310.43403     -5018.2655      0             -4991.0195     -32.686567    
    267700   309.50784     -5018.5657      0             -4991.4009     -49.39688     
    267800   300.04817     -5017.8819      0             -4991.5474      67.06963     
    267900   300.33333     -5017.833       0             -4991.4734      95.095419    
    268000   291.30678     -5016.9977      0             -4991.4304      59.900716    
    268100   296.80114     -5017.4076      0             -4991.358       192.69142    
    268200   289.21089     -5016.5011      0             -4991.1178      152.60402    
    268300   298.10964     -5016.7895      0             -4990.6251      93.429818    
    268400   306.71618     -5017.5506      0             -4990.6309      146.39572    
    268500   289.83963     -5016.3009      0             -4990.8624      56.082889    
    268600   285.84294     -5015.7256      0             -4990.6379     -12.650707    
    268700   299.09437     -5017.0977      0             -4990.8469      31.919621    
    268800   300.99708     -5017.5805      0             -4991.1627     -82.706766    
    268900   295.6989      -5017.2645      0             -4991.3117     -90.1412      
    269000   304.33308     -5017.8258      0             -4991.1152     -99.132226    
    269100   305.58067     -5017.9047      0             -4991.0846     -161.74963    
    269200   292.14092     -5016.6478      0             -4991.0072     -221.91221    
    269300   305.98696     -5017.7487      0             -4990.8929     -132.79821    
    269400   302.42676     -5017.2666      0             -4990.7233     -118.02501    
    269500   309.38227     -5017.9374      0             -4990.7837     -126.85497    
    269600   296.25666     -5016.9474      0             -4990.9456     -79.435141    
    269700   305.47356     -5018.1075      0             -4991.2968     -33.333893    
    269800   287.08895     -5016.6052      0             -4991.4081     -55.66581     
    269900   304.25127     -5018.0771      0             -4991.3736      51.141065    
    270000   288.43643     -5016.8027      0             -4991.4873      66.338968    
    270100   284.34728     -5016.1507      0             -4991.1942      34.810468    
    270200   304.90684     -5017.8485      0             -4991.0875      174.29563    
    270300   307.03658     -5017.8174      0             -4990.8695      184.35713    
    270400   301.04272     -5017.3998      0             -4990.9779      89.534888    
    270500   286.72196     -5016.3128      0             -4991.1479      146.19628    
    270600   286.87601     -5016.4566      0             -4991.2781      106.51081    
    270700   315.45362     -5019.0953      0             -4991.4087      9.8096192    
    270800   303.38227     -5018.5412      0             -4991.9141      6.2026144    
    270900   306.89298     -5018.8308      0             -4991.8956     -17.374024    
    271000   297.08384     -5018.0334      0             -4991.9591     -129.0711     
    271100   300.84984     -5018.0219      0             -4991.617      -111.68109    
    271200   292.40136     -5017.2222      0             -4991.5588     -122.90407    
    271300   280.7534      -5016.2776      0             -4991.6366     -211.46939    
    271400   301.91286     -5017.9975      0             -4991.4994     -180.47784    
    271500   290.22211     -5016.7398      0             -4991.2677     -136.71817    
    271600   300.06328     -5017.3655      0             -4991.0297     -139.68557    
    271700   302.70622     -5017.6773      0             -4991.1095     -104.8137     
    271800   305.11607     -5018.2145      0             -4991.4351     -31.661536    
    271900   299.96032     -5017.87        0             -4991.5432     -44.44217     
    272000   315.13256     -5019.4433      0             -4991.7848      7.3410869    
    272100   306.22212     -5018.6811      0             -4991.8047      103.09283    
    272200   298.12484     -5018.166       0             -4992.0003      35.79799     
    272300   312.22339     -5019.5975      0             -4992.1944      138.90746    
    272400   296.85295     -5018.0607      0             -4992.0066      191.6662     
    272500   291.58196     -5017.428       0             -4991.8366      114.04706    
    272600   295.84527     -5017.7454      0             -4991.7798      60.354362    
    272700   297.69985     -5018.1081      0             -4991.9797      131.21424    
    272800   306.22112     -5018.8052      0             -4991.9289      19.585879    
    272900   314.79249     -5019.7827      0             -4992.1541     -41.392421    
    273000   313.38536     -5019.7105      0             -4992.2055      56.369759    
    273100   288.75038     -5017.5481      0             -4992.2051     -99.216977    
    273200   298.04663     -5018.2271      0             -4992.0682     -151.12629    
    273300   282.81434     -5016.8196      0             -4991.9977     -100.56496    
    273400   283.26913     -5016.5934      0             -4991.7315     -195.85103    
    273500   292.77224     -5017.116       0             -4991.4201     -216.30434    
    273600   299.64706     -5017.5499      0             -4991.2505     -135.89822    
    273700   298.157       -5017.3671      0             -4991.1985     -179.12289    
    273800   296.30807     -5017.3188      0             -4991.3125     -137.93079    
    273900   311.696       -5018.8459      0             -4991.4891     -32.326563    
    274000   293.6874      -5017.1245      0             -4991.3482     -36.42745     
    274100   317.53862     -5019.6192      0             -4991.7496     -29.363902    
    274200   299.32165     -5018.2164      0             -4991.9457      80.284898    
    274300   282.98107     -5016.6958      0             -4991.8592      52.731291    
    274400   299.76331     -5018.147       0             -4991.8375      70.421579    
    274500   305.24317     -5018.694       0             -4991.9035      192.77317    
    274600   289.71877     -5016.8797      0             -4991.4518      117.20043    
    274700   305.89112     -5017.8598      0             -4991.0125      114.43837    
    274800   298.72724     -5017.1593      0             -4990.9407      144.61582    
    274900   298.48248     -5017.2836      0             -4991.0865      40.693898    
    275000   298.08125     -5017.3271      0             -4991.1652     -11.690289    
    275100   303.79706     -5018.0912      0             -4991.4276      46.52257     
    275200   298.94538     -5017.9627      0             -4991.7249     -88.681919    
    275300   307.59847     -5018.6119      0             -4991.6147     -109.74831    
    275400   292.60251     -5017.1576      0             -4991.4766     -85.974798    
    275500   303.63543     -5018.2617      0             -4991.6123     -126.44632    
    275600   300.18975     -5017.6758      0             -4991.3289     -237.29155    
    275700   292.53738     -5016.8158      0             -4991.1405     -104.67906    
    275800   298.09114     -5017.3308      0             -4991.1681     -136.62104    
    275900   293.33949     -5016.6733      0             -4990.9276     -166.80938    
    276000   316.72805     -5018.841       0             -4991.0425     -73.718349    
    276100   298.91236     -5017.5572      0             -4991.3224     -24.334424    
    276200   285.98168     -5016.4682      0             -4991.3683     -103.81626    
    276300   304.25969     -5018.3518      0             -4991.6477      20.514281    
    276400   299.98826     -5017.9649      0             -4991.6356      117.78484    
    276500   272.28613     -5015.457       0             -4991.5591      23.694902    
    276600   299.50798     -5017.8769      0             -4991.5898      121.18444    
    276700   297.55818     -5017.3481      0             -4991.2321      169.29167    
    276800   292.65171     -5016.9048      0             -4991.2195      82.339542    
    276900   321.03425     -5019.2745      0             -4991.0981      102.38347    
    277000   311.88765     -5018.6214      0             -4991.2478      125.54101    
    277100   320.01255     -5019.6453      0             -4991.5585     -51.683097    
    277200   298.47163     -5017.8301      0             -4991.634       5.1317996    
    277300   296.33017     -5017.89        0             -4991.8818     -25.100025    
    277400   296.25767     -5018.0024      0             -4992.0006     -125.08738    
    277500   293.47626     -5017.7954      0             -4992.0377     -134.24125    
    277600   289.73307     -5017.3177      0             -4991.8885     -101.74673    
    277700   291.05806     -5017.0645      0             -4991.5191     -187.72686    
    277800   293.23038     -5017.1054      0             -4991.3693     -199.48725    
    277900   302.10919     -5017.7808      0             -4991.2654     -143.40529    
    278000   295.86454     -5017.2683      0             -4991.301      -143.26429    
    278100   295.36923     -5017.2501      0             -4991.3263     -85.93049     
    278200   312.96024     -5018.94        0             -4991.4722     -17.572971    
    278300   304.11691     -5018.5667      0             -4991.8751     -31.159215    
    278400   293.8186      -5018.11        0             -4992.3222     -2.2208907    
    278500   309.35249     -5019.592       0             -4992.4409      81.261387    
    278600   288.00578     -5017.682       0             -4992.4044      45.856101    
    278700   298.86239     -5018.4375      0             -4992.207       76.269058    
    278800   284.94487     -5017.1641      0             -4992.1552      167.18432    
    278900   284.50365     -5016.6888      0             -4991.7186      95.34281     
    279000   296.79205     -5017.9287      0             -4991.88        79.796858    
    279100   306.98965     -5018.7283      0             -4991.7845      107.51188    
    279200   306.5364      -5018.7443      0             -4991.8403      14.971515    
    279300   322.69791     -5020.4277      0             -4992.1052     -17.391869    
    279400   299.28895     -5018.2623      0             -4991.9944     -26.663946    
    279500   305.8293      -5018.9301      0             -4992.0881     -106.43726    
    279600   296.1966      -5018.1069      0             -4992.1105     -121.55759    
    279700   293.69879     -5017.8743      0             -4992.0971     -110.54949    
    279800   299.83113     -5017.9134      0             -4991.5979     -156.13129    
    279900   288.22003     -5016.7952      0             -4991.4988     -197.77154    
    280000   301.15302     -5018.2677      0             -4991.8362     -166.38609    
    280100   293.5059      -5017.4167      0             -4991.6564     -92.16637     
    280200   295.06356     -5017.4999      0             -4991.6029     -150.38091    
    280300   314.12145     -5019.316       0             -4991.7463     -64.475508    
    280400   305.05474     -5018.866       0             -4992.0921      24.080082    
    280500   291.97504     -5017.8657      0             -4992.2397     -17.399391    
    280600   295.39319     -5018.0032      0             -4992.0772      31.137248    
    280700   304.02154     -5018.6881      0             -4992.0049      147.55149    
    280800   311.93839     -5019.1384      0             -4991.7603      43.374215    
    280900   306.921       -5018.5633      0             -4991.6255      136.23842    
    281000   294.5927      -5017.2684      0             -4991.4127      176.2252     
    281100   298.67114     -5017.5176      0             -4991.3039      56.446361    
    281200   302.35715     -5017.9187      0             -4991.3815      119.25283    
    281300   297.94811     -5017.724       0             -4991.5738      66.469716    
    281400   307.19644     -5018.8888      0             -4991.9269     -24.725581    
    281500   318.03371     -5019.9274      0             -4992.0144     -26.65919     
    281600   293.90493     -5017.8091      0             -4992.0138     -63.970112    
    281700   304.8317      -5018.7278      0             -4991.9735     -105.48584    
    281800   321.29181     -5020.0917      0             -4991.8927     -120.36256    
    281900   298.16204     -5017.9656      0             -4991.7966     -139.8894     
    282000   295.09763     -5017.3695      0             -4991.4694     -181.22622    
    282100   284.64932     -5016.3603      0             -4991.3773     -166.8286     
    282200   298.00347     -5017.3278      0             -4991.1728     -122.83138    
    282300   297.11582     -5017.4051      0             -4991.328      -141.07009    
    282400   287.14444     -5016.3473      0             -4991.1453     -75.06919     
    282500   301.43031     -5017.774       0             -4991.3181     -31.660166    
    282600   300.59025     -5017.9472      0             -4991.5651     -20.21682     
    282700   300.56303     -5018.2435      0             -4991.8638      11.305913    
    282800   296.46187     -5017.7703      0             -4991.7505      106.51522    
    282900   274.59969     -5015.5523      0             -4991.4513      81.613213    
    283000   298.61802     -5017.7742      0             -4991.5652      113.4885     
    283100   305.11006     -5018.1799      0             -4991.4011      128.84441    
    283200   298.64106     -5017.521       0             -4991.31        110.11021    
    283300   308.58374     -5018.5084      0             -4991.4247      87.1125      
    283400   313.70066     -5019.0723      0             -4991.5396      53.414557    
    283500   279.56128     -5016.1007      0             -4991.5643      10.388685    
    283600   294.23157     -5017.3274      0             -4991.5034     -46.572898    
    283700   316.97754     -5019.6741      0             -4991.8537     -58.186577    
    283800   305.22624     -5018.6197      0             -4991.8307     -82.958897    
    283900   291.23445     -5016.9772      0             -4991.4163     -162.72859    
    284000   299.3515      -5017.794       0             -4991.5206     -155.7886     
    284100   294.83907     -5017.2185      0             -4991.3412     -141.75241    
    284200   297.39145     -5017.0312      0             -4990.9299     -218.10271    
    284300   292.52229     -5016.5706      0             -4990.8966     -150.90612    
    284400   306.82692     -5018.0344      0             -4991.1049     -100.2816     
    284500   307.52176     -5018.3031      0             -4991.3127     -112.2514     
    284600   292.44302     -5017.2465      0             -4991.5794     -31.534466    
    284700   295.72679     -5017.6091      0             -4991.6538      20.903076    
    284800   297.36893     -5017.8586      0             -4991.7592     -15.415589    
    284900   299.83557     -5018.2008      0             -4991.885       111.2595     
    285000   298.1546      -5017.8872      0             -4991.7189      80.55298     
Loop time of 983.818 on 1 procs for 280000 steps with 700 atoms

Performance: 12.295 ns/day, 1.952 hours/ns, 284.605 timesteps/s, 199.224 katom-step/s
100.0% CPU use with 1 MPI tasks x 1 OpenMP threads

MPI task timing breakdown:
Section |  min time  |  avg time  |  max time  |%varavg| %total
---------------------------------------------------------------
Pair    | 980.69     | 980.69     | 980.69     |   0.0 | 99.68
Neigh   | 1.0048     | 1.0048     | 1.0048     |   0.0 |  0.10
Comm    | 0.025693   | 0.025693   | 0.025693   |   0.0 |  0.00
Output  | 0.10899    | 0.10899    | 0.10899    |   0.0 |  0.01
Modify  | 1.7092     | 1.7092     | 1.7092     |   0.0 |  0.17
Other   |            | 0.2844     |            |       |  0.03

Nlocal:            700 ave         700 max         700 min
Histogram: 1 0 0 0 0 0 0 0 0 0
Nghost:              0 ave           0 max           0 min
Histogram: 1 0 0 0 0 0 0 0 0 0
Neighs:              0 ave           0 max           0 min
Histogram: 1 0 0 0 0 0 0 0 0 0
FullNghs:       111872 ave      111872 max      111872 min
Histogram: 1 0 0 0 0 0 0 0 0 0

Total # of neighbors = 111872
Ave neighs/atom = 159.81714
Neighbor list builds = 1207
Dangerous builds = 0
Total wall time: 0:16:40
