ITEM: TIMESTEP
0
ITEM: NUMBER OF ATOMS
740
ITEM: BOX BOUNDS ff ff ff
-1.0000000000000000e+02 1.0000000000000000e+02
-1.0000000000000000e+02 1.0000000000000000e+02
-1.0000000000000000e+02 1.0000000000000000e+02
ITEM: ATOMS id type xs ys zs
86 1 0.487797 0.477376 0.394849
95 1 0.483922 0.479902 0.381537
96 1 0.489876 0.476379 0.38287
97 1 0.492049 0.475593 0.389523
98 1 0.498852 0.474359 0.390863
99 1 0.501155 0.474355 0.397517
100 1 0.507978 0.475499 0.398861
106 1 0.483911 0.479986 0.362915
107 1 0.485793 0.478537 0.369538
108 1 0.492012 0.475495 0.37087
109 1 0.494253 0.474946 0.377536
110 1 0.501156 0.474365 0.378881
111 1 0.503455 0.474544 0.385538
112 1 0.510157 0.476277 0.386872
113 1 0.512251 0.477226 0.393533
119 1 0.496548 0.474517 0.365585
120 1 0.503439 0.474669 0.366912
121 1 0.505733 0.475006 0.373562
122 1 0.51228 0.477257 0.374889
123 1 0.514275 0.478366 0.381547
129 1 0.507906 0.475692 0.361599
130 1 0.514276 0.478324 0.362925
131 1 0.516246 0.479621 0.369558
44 1 0.479121 0.515067 0.398852
56 1 0.477832 0.513107 0.386875
57 1 0.476758 0.511097 0.393537
58 1 0.474597 0.504528 0.394878
66 1 0.476636 0.511059 0.374903
67 1 0.475753 0.508967 0.381563
68 1 0.474148 0.502242 0.382906
69 1 0.474116 0.499938 0.389558
70 1 0.475041 0.493081 0.390886
71 1 0.475792 0.490897 0.397533
72 1 0.479096 0.484822 0.398859
77 1 0.479156 0.514905 0.361604
78 1 0.475588 0.509016 0.362948
79 1 0.474819 0.506798 0.369581
80 1 0.473817 0.499945 0.370916
81 1 0.474063 0.497639 0.377575
82 1 0.475742 0.490917 0.378904
83 1 0.476672 0.488782 0.38555
91 1 0.474297 0.495342 0.365624
92 1 0.476774 0.488905 0.366929
93 1 0.477871 0.486838 0.373572
105 1 0.479262 0.485076 0.361605
25 1 0.519314 0.516657 0.377527
35 1 0.51774 0.518294 0.365573
55 1 0.482144 0.518518 0.385526
64 1 0.482173 0.518382 0.366902
65 1 0.480554 0.516764 0.37356
84 1 0.480548 0.483044 0.386866
85 1 0.482155 0.481389 0.393521
94 1 0.482217 0.48144 0.374881
114 1 0.517918 0.481189 0.394875
124 1 0.519573 0.482806 0.382892
708 2 0.50899 0.498704 0.378004
711 2 0.491853 0.501952 0.371388
720 2 0.506375 0.49415 0.395805
731 2 0.492138 0.495651 0.386471
732 2 0.501254 0.509643 0.388048
14 1 0.515901 0.519872 0.390827
5 1 0.525269 0.504354 0.393528
6 1 0.523035 0.510903 0.394849
11 1 0.524779 0.506599 0.38155
12 1 0.521997 0.512935 0.38287
13 1 0.520666 0.514846 0.389515
21 1 0.525697 0.499707 0.361612
22 1 0.52493 0.506556 0.362932
23 1 0.524182 0.50881 0.369557
24 1 0.520854 0.514889 0.370875
125 1 0.520996 0.484611 0.389547
126 1 0.524267 0.490706 0.390874
127 1 0.524956 0.492916 0.397522
128 1 0.525772 0.499783 0.398856
132 1 0.521152 0.484509 0.370896
133 1 0.522352 0.486478 0.37756
134 1 0.524984 0.492884 0.378897
135 1 0.525447 0.495154 0.385547
136 1 0.525636 0.502072 0.386879
137 1 0.523514 0.488506 0.365612
138 1 0.525393 0.495143 0.366931
139 1 0.525706 0.497442 0.373579
140 1 0.525351 0.50436 0.374901
15 1 0.514047 0.521262 0.397475
16 1 0.507862 0.524369 0.398805
26 1 0.514049 0.52117 0.378845
27 1 0.512084 0.522441 0.385491
28 1 0.505639 0.524995 0.38681
29 1 0.503381 0.525456 0.393473
30 1 0.496458 0.525499 0.394813
36 1 0.512022 0.52215 0.36687
37 1 0.509959 0.523272 0.373509
38 1 0.503324 0.525267 0.37482
39 1 0.50106 0.525617 0.381479
40 1 0.494162 0.525072 0.382828
41 1 0.491955 0.524467 0.389492
42 1 0.485741 0.521431 0.390838
43 1 0.483889 0.520081 0.397499
49 1 0.507788 0.523847 0.361539
50 1 0.501074 0.525407 0.362853
51 1 0.498719 0.525575 0.369484
52 1 0.491889 0.524469 0.370832
53 1 0.489767 0.523636 0.377503
54 1 0.483869 0.520011 0.378863
63 1 0.487638 0.522579 0.365559
74 1 0.485786 0.478514 0.406836
75 1 0.487762 0.477329 0.413489
76 1 0.49427 0.474974 0.414822
87 1 0.489869 0.476386 0.401507
88 1 0.496548 0.474579 0.402846
89 1 0.498841 0.47437 0.4095
90 1 0.505735 0.474943 0.41084
101 1 0.510141 0.476293 0.405516
102 1 0.516148 0.479727 0.406851
235 1 0.483888 0.479769 0.437444
236 1 0.489853 0.47625 0.438778
246 1 0.483888 0.47982 0.418823
247 1 0.485777 0.478485 0.425471
248 1 0.49204 0.475546 0.426801
249 1 0.494259 0.474914 0.433451
250 1 0.501153 0.474321 0.434794
259 1 0.496541 0.474566 0.421473
260 1 0.503461 0.474555 0.422815
261 1 0.505728 0.474935 0.429471
262 1 0.512229 0.477292 0.430814
263 1 0.514209 0.478449 0.437469
269 1 0.507965 0.475536 0.417493
270 1 0.514246 0.478431 0.418838
271 1 0.516118 0.479762 0.425493
45 1 0.477862 0.513148 0.405508
46 1 0.47514 0.506789 0.406853
47 1 0.474619 0.504549 0.413507
48 1 0.474283 0.497636 0.414846
59 1 0.474299 0.502256 0.401531
60 1 0.474586 0.495342 0.402863
61 1 0.475093 0.493096 0.409519
62 1 0.477797 0.486722 0.410839
206 1 0.476795 0.511116 0.430809
207 1 0.475946 0.508988 0.437465
208 1 0.474399 0.502241 0.438801
217 1 0.479153 0.515072 0.417489
218 1 0.475854 0.50899 0.418834
219 1 0.475132 0.506806 0.425489
220 1 0.474184 0.499943 0.42682
221 1 0.474326 0.497636 0.433471
222 1 0.475862 0.490885 0.434803
231 1 0.474583 0.495345 0.421494
232 1 0.476723 0.488759 0.42282
233 1 0.477837 0.48673 0.429469
245 1 0.479073 0.484795 0.417491
4 1 0.519229 0.516709 0.414796
8 1 0.517618 0.518355 0.402812
34 1 0.480581 0.516879 0.41083
73 1 0.480539 0.483022 0.405507
103 1 0.517906 0.48122 0.413507
115 1 0.519528 0.482844 0.401525
165 1 0.519251 0.516733 0.433427
175 1 0.517661 0.518412 0.421444
204 1 0.482194 0.518553 0.42281
205 1 0.480612 0.516889 0.429467
234 1 0.482157 0.481318 0.430798
264 1 0.519472 0.482939 0.438808
704 2 0.508402 0.498276 0.430588
707 2 0.490615 0.50139 0.429024
713 2 0.509234 0.497202 0.412012
718 2 0.493648 0.506017 0.40292
723 2 0.501566 0.509516 0.419437
726 2 0.493238 0.493387 0.414697
9 1 0.515914 0.519912 0.409465
1 1 0.525645 0.502088 0.4055
2 1 0.523973 0.508804 0.406823
3 1 0.523051 0.510931 0.413471
7 1 0.521923 0.512929 0.401495
104 1 0.522283 0.486579 0.41484
116 1 0.523377 0.488596 0.402856
117 1 0.524296 0.49072 0.409511
118 1 0.525758 0.497494 0.410836
151 1 0.524742 0.50668 0.437433
152 1 0.521965 0.513018 0.438759
161 1 0.525805 0.499809 0.417484
162 1 0.524735 0.506648 0.418806
163 1 0.523997 0.508844 0.425452
164 1 0.520678 0.514922 0.426776
272 1 0.520958 0.484701 0.426827
273 1 0.522221 0.48663 0.433476
274 1 0.524935 0.492991 0.434806
277 1 0.523354 0.488629 0.42149
278 1 0.52545 0.495228 0.422818
279 1 0.525717 0.497523 0.429468
280 1 0.525292 0.504434 0.430786
10 1 0.510037 0.523568 0.410794
17 1 0.505664 0.525023 0.405462
18 1 0.498779 0.525709 0.406799
19 1 0.496496 0.525533 0.413458
20 1 0.489837 0.523654 0.414802
31 1 0.494209 0.525086 0.401474
32 1 0.487736 0.522642 0.402822
33 1 0.485779 0.52145 0.409485
166 1 0.51409 0.521341 0.434757
176 1 0.512124 0.52257 0.422774
177 1 0.510062 0.52359 0.429427
178 1 0.503416 0.525523 0.430765
179 1 0.501138 0.525767 0.43742
180 1 0.494244 0.525171 0.438756
189 1 0.50791 0.524455 0.417446
190 1 0.501109 0.52576 0.418786
191 1 0.49881 0.525755 0.425443
192 1 0.492009 0.524492 0.426781
193 1 0.489864 0.523691 0.433436
194 1 0.483953 0.520094 0.434782
203 1 0.487777 0.522645 0.421457
214 1 0.48577 0.478377 0.462734
215 1 0.487727 0.477192 0.469387
216 1 0.494235 0.474849 0.470735
226 1 0.48777 0.477213 0.450759
227 1 0.489856 0.476233 0.457413
228 1 0.496538 0.474456 0.458758
229 1 0.498819 0.474279 0.465416
230 1 0.505705 0.474958 0.466755
237 1 0.492022 0.475438 0.445433
238 1 0.498841 0.474264 0.446779
239 1 0.501144 0.474282 0.453435
240 1 0.50795 0.475537 0.454774
241 1 0.510102 0.476359 0.461431
242 1 0.516071 0.479863 0.46277
251 1 0.503445 0.474507 0.441453
252 1 0.510124 0.476317 0.442799
253 1 0.512205 0.47731 0.449453
386 1 0.483847 0.479689 0.474714
399 1 0.496499 0.474492 0.47739
400 1 0.503415 0.474575 0.478729
409 1 0.507915 0.475604 0.47341
410 1 0.514165 0.478579 0.474747
184 1 0.479309 0.515054 0.454762
185 1 0.478077 0.51312 0.461418
186 1 0.475363 0.506752 0.462745
187 1 0.474851 0.504498 0.46939
188 1 0.474456 0.49759 0.470719
196 1 0.477984 0.513134 0.442787
197 1 0.476942 0.511092 0.449442
198 1 0.474801 0.504516 0.450776
199 1 0.474495 0.502227 0.457421
200 1 0.474745 0.495315 0.45875
201 1 0.475223 0.493052 0.465394
202 1 0.477862 0.486658 0.46672
209 1 0.474344 0.499933 0.445451
210 1 0.475225 0.49307 0.446774
211 1 0.475932 0.490871 0.453421
212 1 0.479156 0.48475 0.454746
223 1 0.476779 0.488742 0.441445
357 1 0.479358 0.515035 0.473388
358 1 0.476102 0.508924 0.474721
371 1 0.474702 0.495285 0.477363
372 1 0.476723 0.488665 0.478697
385 1 0.479079 0.484701 0.473371
727 2 0.494341 0.49208 0.442178
733 2 0.499273 0.509483 0.443097
144 1 0.519335 0.51683 0.470704
148 1 0.517714 0.518469 0.458722
174 1 0.480768 0.516865 0.466741
195 1 0.482258 0.518572 0.441443
213 1 0.480568 0.482931 0.461396
224 1 0.48055 0.482936 0.442774
225 1 0.482162 0.481266 0.449422
243 1 0.517816 0.481386 0.469417
254 1 0.517844 0.48132 0.450793
255 1 0.519451 0.482989 0.457442
315 1 0.51776 0.518531 0.477354
344 1 0.482355 0.518538 0.478711
714 2 0.50849 0.496884 0.449249
715 2 0.498355 0.509275 0.472695
719 2 0.491975 0.501559 0.457647
721 2 0.509161 0.498059 0.465961
724 2 0.494699 0.492714 0.473537
154 1 0.515956 0.519979 0.446738
141 1 0.525723 0.502212 0.461401
142 1 0.524091 0.50894 0.462724
143 1 0.523181 0.511073 0.469372
145 1 0.525314 0.504463 0.44942
146 1 0.523103 0.51102 0.450745
147 1 0.522023 0.513056 0.457394
153 1 0.520706 0.514948 0.445411
244 1 0.522209 0.486743 0.470751
256 1 0.523327 0.488726 0.458771
257 1 0.524261 0.490864 0.465418
258 1 0.525805 0.497618 0.466738
265 1 0.520919 0.484743 0.445461
266 1 0.524227 0.490819 0.446787
267 1 0.524944 0.493025 0.453434
268 1 0.525815 0.499894 0.454755
275 1 0.525416 0.495253 0.441451
276 1 0.525635 0.50217 0.442772
301 1 0.52588 0.499943 0.473384
302 1 0.524866 0.506794 0.47471
417 1 0.523301 0.488792 0.477398
418 1 0.525478 0.495367 0.478722
149 1 0.516007 0.520018 0.465376
150 1 0.510119 0.523655 0.466714
155 1 0.514127 0.521364 0.453395
156 1 0.507941 0.524464 0.454728
157 1 0.505748 0.525123 0.461386
158 1 0.498869 0.525828 0.462721
159 1 0.496583 0.525657 0.469377
160 1 0.489925 0.523763 0.470724
167 1 0.512141 0.522569 0.44141
168 1 0.505709 0.525119 0.442746
169 1 0.503459 0.525559 0.449403
170 1 0.496543 0.525607 0.450745
171 1 0.494294 0.525197 0.457403
172 1 0.487848 0.522703 0.458743
173 1 0.485902 0.5215 0.465401
181 1 0.492041 0.524567 0.44542
182 1 0.485845 0.52149 0.446761
183 1 0.484028 0.52011 0.453423
316 1 0.512203 0.522661 0.47869
329 1 0.507983 0.524528 0.473366
330 1 0.501192 0.52586 0.474708
343 1 0.487877 0.522713 0.477378
354 1 0.485707 0.478406 0.518649
366 1 0.487689 0.477219 0.506666
367 1 0.489786 0.476267 0.513322
368 1 0.496486 0.474542 0.514659
375 1 0.483794 0.479687 0.49335
376 1 0.489793 0.476239 0.494686
377 1 0.491963 0.475475 0.501343
378 1 0.498789 0.474343 0.502682
379 1 0.501091 0.474376 0.509333
380 1 0.507895 0.475633 0.510669
381 1 0.510056 0.476449 0.517321
382 1 0.516029 0.479943 0.51865
387 1 0.485702 0.47836 0.481373
388 1 0.491986 0.475458 0.482714
389 1 0.494206 0.474886 0.489368
390 1 0.501102 0.47436 0.490709
391 1 0.503395 0.474583 0.49736
392 1 0.510069 0.476414 0.498688
393 1 0.512146 0.47741 0.50534
401 1 0.505669 0.475012 0.485382
402 1 0.512154 0.47743 0.486715
403 1 0.514143 0.478583 0.493367
411 1 0.516025 0.479936 0.481393
324 1 0.479281 0.515001 0.510623
325 1 0.477969 0.513099 0.517272
326 1 0.475239 0.506737 0.518609
336 1 0.478084 0.513048 0.498651
337 1 0.476958 0.511025 0.505299
338 1 0.474763 0.504462 0.506631
339 1 0.474408 0.502196 0.513288
340 1 0.474627 0.495283 0.51464
346 1 0.47701 0.511027 0.486688
347 1 0.476079 0.508897 0.493331
348 1 0.47445 0.50217 0.494663
349 1 0.474297 0.49987 0.501313
350 1 0.475096 0.492999 0.502657
351 1 0.475783 0.490811 0.509315
352 1 0.479014 0.484694 0.510654
359 1 0.475376 0.506722 0.481363
360 1 0.474345 0.499875 0.48269
361 1 0.474377 0.497561 0.489339
362 1 0.475772 0.490778 0.490677
363 1 0.47665 0.488651 0.497334
373 1 0.477753 0.486608 0.48535
288 1 0.517839 0.518621 0.514634
305 1 0.519386 0.516911 0.489337
335 1 0.482355 0.518497 0.497325
345 1 0.48079 0.516832 0.485357
353 1 0.480462 0.482916 0.517313
364 1 0.480445 0.482864 0.498672
365 1 0.482044 0.481219 0.50533
374 1 0.482056 0.481191 0.486694
394 1 0.51778 0.481431 0.506671
395 1 0.519381 0.483092 0.51332
404 1 0.519395 0.483087 0.494699
705 2 0.506391 0.493253 0.499635
712 2 0.506513 0.506496 0.510703
716 2 0.498585 0.509286 0.494237
736 2 0.494309 0.492714 0.510665
737 2 0.509178 0.499146 0.483629
740 2 0.49199 0.494575 0.490859
281 1 0.525687 0.502302 0.51729
282 1 0.524146 0.509044 0.518623
285 1 0.525358 0.5046 0.505316
286 1 0.523227 0.511181 0.506644
287 1 0.522151 0.513206 0.513299
291 1 0.524846 0.50684 0.493342
292 1 0.52211 0.513199 0.494667
293 1 0.520857 0.515141 0.501319
303 1 0.524132 0.508997 0.481359
304 1 0.520807 0.515078 0.482686
396 1 0.523229 0.488843 0.514644
405 1 0.520844 0.484874 0.501347
406 1 0.524137 0.49096 0.502668
407 1 0.524849 0.493153 0.509313
408 1 0.525778 0.50001 0.510641
412 1 0.520863 0.484882 0.482725
413 1 0.522137 0.486793 0.489376
414 1 0.524894 0.493142 0.490705
415 1 0.525376 0.4954 0.49735
416 1 0.525672 0.502312 0.498673
419 1 0.525756 0.497667 0.485372
420 1 0.525395 0.504582 0.486698
294 1 0.516098 0.520168 0.502653
295 1 0.514246 0.521522 0.509308
296 1 0.508008 0.524514 0.510647
297 1 0.50577 0.52508 0.517296
298 1 0.498876 0.525676 0.51862
306 1 0.514209 0.521507 0.490675
307 1 0.512253 0.522722 0.49733
308 1 0.50579 0.525201 0.498665
309 1 0.503521 0.525566 0.505321
310 1 0.496599 0.525531 0.506652
311 1 0.49432 0.525064 0.513294
312 1 0.487854 0.522594 0.51462
317 1 0.510157 0.52372 0.485347
318 1 0.503505 0.525642 0.486691
319 1 0.501215 0.525865 0.493348
320 1 0.49432 0.525208 0.494678
321 1 0.492111 0.52451 0.501327
322 1 0.485921 0.521407 0.502647
323 1 0.484047 0.520021 0.509288
331 1 0.498898 0.525861 0.481365
332 1 0.492094 0.524578 0.482702
333 1 0.489951 0.523728 0.489354
334 1 0.484076 0.520062 0.490685
355 1 0.487702 0.47727 0.525304
356 1 0.494214 0.474942 0.526642
369 1 0.498783 0.474378 0.521313
370 1 0.50567 0.475043 0.522648
515 1 0.483841 0.479767 0.549279
516 1 0.489814 0.476268 0.550616
517 1 0.491996 0.475501 0.557271
518 1 0.498822 0.474356 0.558596
526 1 0.483836 0.479755 0.53064
527 1 0.485708 0.47842 0.537295
528 1 0.491984 0.475507 0.538626
529 1 0.494213 0.474917 0.545283
530 1 0.501116 0.474386 0.546609
531 1 0.503414 0.474607 0.553263
532 1 0.51008 0.476469 0.554584
539 1 0.49649 0.474556 0.533294
540 1 0.503408 0.47463 0.534626
541 1 0.505674 0.475046 0.541278
542 1 0.512153 0.477471 0.542608
543 1 0.514141 0.478644 0.549255
549 1 0.507896 0.47566 0.529298
550 1 0.514149 0.478627 0.530634
551 1 0.51602 0.479977 0.537283
327 1 0.474706 0.504503 0.525265
328 1 0.474348 0.497596 0.526613
341 1 0.475114 0.493043 0.521297
342 1 0.477771 0.486658 0.522639
476 1 0.477955 0.513145 0.554534
486 1 0.476867 0.51108 0.542564
487 1 0.475967 0.508972 0.549219
488 1 0.474405 0.502236 0.55057
489 1 0.474291 0.499954 0.557228
490 1 0.475158 0.493094 0.55858
497 1 0.479213 0.515044 0.529246
498 1 0.475952 0.50894 0.530591
499 1 0.475245 0.506759 0.537246
500 1 0.474277 0.499911 0.538595
501 1 0.474368 0.49762 0.545253
502 1 0.475833 0.49086 0.546601
503 1 0.476731 0.488754 0.553261
511 1 0.474633 0.495314 0.53327
512 1 0.476703 0.488711 0.53462
513 1 0.477786 0.486683 0.541279
525 1 0.479041 0.484739 0.529296
706 2 0.506606 0.494566 0.524183
730 2 0.492699 0.505618 0.520534
284 1 0.519397 0.516889 0.526613
314 1 0.480641 0.516856 0.522596
383 1 0.517785 0.481443 0.525298
445 1 0.51939 0.51687 0.545235
455 1 0.517792 0.518535 0.533262
475 1 0.48223 0.518582 0.553193
484 1 0.482243 0.518521 0.534568
485 1 0.480657 0.516862 0.54122
504 1 0.480513 0.482962 0.554606
514 1 0.482092 0.48127 0.542624
544 1 0.519399 0.483144 0.550582
701 2 0.492794 0.494569 0.536252
709 2 0.495333 0.491965 0.55453
728 2 0.496715 0.508536 0.553778
735 2 0.509127 0.499441 0.545809
738 2 0.501648 0.509193 0.534245
283 1 0.523234 0.511142 0.525273
384 1 0.522152 0.486811 0.526623
397 1 0.524162 0.490952 0.521294
398 1 0.52572 0.497694 0.522616
431 1 0.524932 0.506849 0.549227
432 1 0.522137 0.513178 0.550563
433 1 0.520841 0.515098 0.557212
441 1 0.525845 0.499985 0.529266
442 1 0.524887 0.506838 0.530598
443 1 0.524179 0.509017 0.537251
444 1 0.520839 0.515077 0.538586
545 1 0.520852 0.484936 0.557229
546 1 0.524194 0.490991 0.55856
552 1 0.520858 0.484924 0.538603
553 1 0.522153 0.486832 0.545252
554 1 0.524954 0.493161 0.546581
555 1 0.525463 0.495415 0.553231
556 1 0.525772 0.502326 0.554559
557 1 0.523266 0.48884 0.53327
558 1 0.525452 0.495406 0.5346
559 1 0.525791 0.497688 0.54125
560 1 0.525463 0.504597 0.542581
289 1 0.516078 0.52009 0.521291
290 1 0.510137 0.523628 0.522621
299 1 0.496573 0.525461 0.525265
300 1 0.489905 0.523607 0.526589
313 1 0.485853 0.521415 0.521267
434 1 0.516023 0.520067 0.558534
446 1 0.514162 0.521402 0.546564
447 1 0.512179 0.522593 0.553208
448 1 0.505712 0.525056 0.554532
456 1 0.512195 0.522603 0.534591
457 1 0.510112 0.523593 0.541239
458 1 0.503451 0.52547 0.542562
459 1 0.501149 0.525696 0.549205
460 1 0.494253 0.525116 0.550529
461 1 0.492029 0.524527 0.557179
462 1 0.485808 0.521503 0.558509
469 1 0.50797 0.524434 0.529264
470 1 0.501165 0.525685 0.530596
471 1 0.498852 0.525692 0.537239
472 1 0.492044 0.524449 0.538555
473 1 0.489881 0.523657 0.545204
474 1 0.483959 0.520082 0.546539
483 1 0.487822 0.522609 0.533233
494 1 0.485817 0.478545 0.574591
495 1 0.487819 0.477411 0.581243
496 1 0.494313 0.475039 0.582579
506 1 0.487759 0.477304 0.562607
507 1 0.489869 0.476366 0.569262
508 1 0.496558 0.474592 0.570591
509 1 0.49887 0.47443 0.577243
510 1 0.505761 0.475065 0.578562
519 1 0.501144 0.474395 0.565246
520 1 0.507949 0.475657 0.566573
521 1 0.510133 0.476465 0.57322
522 1 0.516097 0.479972 0.574544
533 1 0.512171 0.47746 0.561234
666 1 0.483974 0.479931 0.586577
667 1 0.485852 0.478607 0.593235
668 1 0.492114 0.475665 0.594568
679 1 0.496599 0.474663 0.58923
680 1 0.503521 0.474686 0.590553
681 1 0.5058 0.475102 0.597204
682 1 0.5123 0.477486 0.598524
689 1 0.508003 0.475687 0.585211
690 1 0.514268 0.478632 0.586535
691 1 0.516155 0.479983 0.593187
464 1 0.47921 0.515117 0.566506
465 1 0.47794 0.513217 0.573162
466 1 0.47524 0.506852 0.574513
467 1 0.474726 0.504635 0.581171
468 1 0.474403 0.497732 0.582531
477 1 0.476872 0.511133 0.561191
478 1 0.474727 0.504559 0.562545
479 1 0.474407 0.502303 0.569205
480 1 0.474677 0.495394 0.570558
481 1 0.475193 0.493177 0.577221
482 1 0.477895 0.486813 0.57857
491 1 0.475863 0.490923 0.565239
492 1 0.47912 0.484823 0.566591
626 1 0.476816 0.511262 0.598465
637 1 0.479173 0.51521 0.585136
638 1 0.475937 0.509098 0.586489
639 1 0.475233 0.506923 0.593151
640 1 0.474317 0.500069 0.594506
651 1 0.474717 0.495467 0.589189
652 1 0.476832 0.488886 0.590551
653 1 0.477927 0.486879 0.597211
665 1 0.479182 0.484917 0.585229
710 2 0.5086 0.500146 0.564273
424 1 0.519341 0.516901 0.582492
428 1 0.517757 0.518569 0.570514
454 1 0.480612 0.516992 0.578479
493 1 0.48058 0.483057 0.573248
505 1 0.48213 0.481332 0.561266
523 1 0.51788 0.481461 0.581191
534 1 0.517795 0.481496 0.562561
535 1 0.519424 0.483138 0.56921
595 1 0.517729 0.518555 0.589141
624 1 0.482159 0.518727 0.590457
625 1 0.480575 0.517069 0.597116
654 1 0.48225 0.481482 0.598561
702 2 0.494914 0.492971 0.595205
703 2 0.492735 0.495973 0.571338
717 2 0.507246 0.494899 0.583314
729 2 0.495909 0.508076 0.586825
421 1 0.525743 0.502336 0.573188
422 1 0.524148 0.509064 0.574516
423 1 0.523211 0.511169 0.581162
425 1 0.525443 0.504615 0.561205
426 1 0.523241 0.511172 0.562544
427 1 0.522115 0.51319 0.56919
524 1 0.52224 0.486834 0.582521
536 1 0.523288 0.488878 0.570539
537 1 0.524224 0.490986 0.57719
538 1 0.525767 0.49773 0.578519
547 1 0.524926 0.49318 0.565206
548 1 0.525868 0.500035 0.566538
581 1 0.525864 0.500028 0.585169
582 1 0.52487 0.506876 0.586498
583 1 0.524131 0.509059 0.593152
584 1 0.520778 0.515111 0.594476
692 1 0.520982 0.484937 0.594516
697 1 0.523357 0.488867 0.589174
698 1 0.525486 0.495451 0.590505
699 1 0.525793 0.497734 0.59716
700 1 0.525411 0.504644 0.598488
429 1 0.516003 0.520075 0.577164
430 1 0.510066 0.523633 0.578484
435 1 0.514152 0.521429 0.56518
436 1 0.507925 0.524452 0.566511
437 1 0.505701 0.525089 0.573155
438 1 0.498817 0.525774 0.574481
439 1 0.496509 0.525598 0.581129
440 1 0.48983 0.5238 0.582463
449 1 0.503442 0.525499 0.561182
450 1 0.496522 0.525548 0.562502
451 1 0.494254 0.525165 0.569153
452 1 0.487775 0.522732 0.570484
453 1 0.485793 0.521577 0.57714
463 1 0.483949 0.520151 0.565159
596 1 0.512124 0.522614 0.590468
597 1 0.510052 0.523631 0.597118
598 1 0.503399 0.525531 0.598442
609 1 0.507903 0.524451 0.585133
610 1 0.501105 0.525758 0.586464
611 1 0.4988 0.525781 0.593117
612 1 0.491979 0.524615 0.594449
623 1 0.487739 0.522819 0.589114
634 1 0.485911 0.478748 0.630535
635 1 0.487998 0.477637 0.637165
636 1 0.494531 0.475429 0.638481
646 1 0.48792 0.477572 0.618543
647 1 0.490019 0.476647 0.625199
648 1 0.496709 0.474846 0.626512
649 1 0.499035 0.474664 0.633155
650 1 0.505926 0.474939 0.63446
656 1 0.489983 0.476529 0.606556
657 1 0.492163 0.47577 0.613212
658 1 0.498974 0.47453 0.614535
659 1 0.501301 0.474519 0.621182
660 1 0.508145 0.475591 0.622507
661 1 0.510359 0.476279 0.629168
662 1 0.51629 0.479856 0.630489
669 1 0.494352 0.475101 0.601218
670 1 0.501246 0.474503 0.602545
671 1 0.503562 0.474698 0.609194
672 1 0.510248 0.476468 0.610512
673 1 0.512361 0.47741 0.617162
683 1 0.514306 0.478633 0.605178
604 1 0.479044 0.515335 0.622424
605 1 0.477689 0.513482 0.629089
606 1 0.475034 0.50709 0.630434
607 1 0.47456 0.504799 0.637072
608 1 0.474559 0.497912 0.638425
616 1 0.47785 0.513354 0.610438
617 1 0.476731 0.511344 0.617097
618 1 0.474652 0.504752 0.618455
619 1 0.474356 0.502504 0.625117
620 1 0.474766 0.495599 0.62647
621 1 0.475338 0.493379 0.633126
622 1 0.477894 0.486981 0.634471
627 1 0.47591 0.509167 0.605122
628 1 0.474407 0.502417 0.606476
629 1 0.474295 0.500139 0.613142
630 1 0.47523 0.493286 0.614507
631 1 0.475946 0.491114 0.621171
632 1 0.479197 0.485001 0.622527
641 1 0.474419 0.497791 0.601166
642 1 0.475945 0.49105 0.602529
643 1 0.476851 0.488954 0.609191
655 1 0.484012 0.48002 0.60522
564 1 0.519185 0.516937 0.638379
568 1 0.517684 0.518605 0.626413
585 1 0.519328 0.516908 0.601124
594 1 0.480446 0.51722 0.634366
615 1 0.482145 0.518772 0.609097
633 1 0.480605 0.483198 0.629199
644 1 0.480672 0.483198 0.610543
645 1 0.48227 0.481557 0.617201
663 1 0.518029 0.481455 0.637117
674 1 0.517963 0.481465 0.618496
675 1 0.519533 0.483135 0.625153
684 1 0.51956 0.483139 0.606505
722 2 0.4955 0.507799 0.607015
725 2 0.503634 0.492815 0.633866
734 2 0.49222 0.49739 0.621427
739 2 0.507911 0.496056 0.607248
561 1 0.525858 0.502445 0.629136
562 1 0.52421 0.509173 0.630452
563 1 0.523213 0.511342 0.637074
565 1 0.525441 0.504682 0.617126
566 1 0.523199 0.511227 0.618455
567 1 0.522078 0.513248 0.625104
571 1 0.524877 0.506885 0.605138
572 1 0.522074 0.513214 0.606464
573 1 0.52078 0.515138 0.613117
664 1 0.522073 0.487036 0.638444
676 1 0.523262 0.48897 0.626474
677 1 0.524105 0.491137 0.633122
678 1 0.525814 0.49782 0.634431
685 1 0.520996 0.484942 0.613164
686 1 0.52427 0.491041 0.614493
687 1 0.524943 0.493257 0.621146
688 1 0.525912 0.500118 0.622478
693 1 0.522275 0.486848 0.601167
694 1 0.525005 0.493204 0.602502
695 1 0.525508 0.495467 0.609157
696 1 0.525765 0.502381 0.610477
569 1 0.515917 0.520131 0.633056
570 1 0.510123 0.523876 0.63436
574 1 0.515978 0.520125 0.614433
575 1 0.514113 0.521512 0.621083
576 1 0.50792 0.524618 0.622409
577 1 0.505725 0.525348 0.629071
578 1 0.498824 0.525937 0.630398
579 1 0.49647 0.525701 0.637027
580 1 0.489888 0.523656 0.638357
586 1 0.514106 0.521449 0.60245
587 1 0.512139 0.52266 0.609098
588 1 0.505681 0.525142 0.610419
589 1 0.503429 0.525614 0.617072
590 1 0.496514 0.525623 0.61841
591 1 0.494265 0.52521 0.625065
592 1 0.487797 0.522746 0.626395
593 1 0.485812 0.52155 0.633045
599 1 0.501113 0.525776 0.605093
600 1 0.494216 0.525216 0.606426
601 1 0.492007 0.524605 0.613086
602 1 0.485761 0.521626 0.614423
603 1 0.4839 0.52027 0.621079
613 1 0.489822 0.523821 0.601102
614 1 0.483883 0.520284 0.602443
ITEM: TIMESTEP
100
ITEM: NUMBER OF ATOMS
740
ITEM: BOX BOUNDS ff ff ff
-1.0000000000000000e+02 1.0000000000000000e+02
-1.0000000000000000e+02 1.0000000000000000e+02
-1.0000000000000000e+02 1.0000000000000000e+02
ITEM: ATOMS id type xs ys zs
86 1 0.488187 0.477666 0.394791
95 1 0.484409 0.480117 0.381608
96 1 0.490228 0.476518 0.382964
97 1 0.492395 0.47546 0.389549
98 1 0.499271 0.474155 0.391011
99 1 0.50147 0.474351 0.397539
100 1 0.508201 0.475315 0.398981
106 1 0.48406 0.479676 0.362927
107 1 0.486126 0.478601 0.369617
108 1 0.492192 0.475264 0.371039
109 1 0.49445 0.474973 0.377604
110 1 0.501368 0.474024 0.379087
111 1 0.503711 0.47415 0.385617
112 1 0.510499 0.475927 0.386875
113 1 0.51232 0.477188 0.393706
119 1 0.496641 0.473683 0.365773
120 1 0.503631 0.474179 0.367156
121 1 0.506003 0.474583 0.373723
122 1 0.512348 0.47715 0.37484
123 1 0.514281 0.478544 0.381494
129 1 0.508123 0.475367 0.361676
130 1 0.514568 0.477873 0.362918
131 1 0.516295 0.479538 0.36946
44 1 0.479029 0.514964 0.398801
56 1 0.478052 0.51307 0.386802
57 1 0.476783 0.511086 0.393454
58 1 0.474633 0.504456 0.394846
66 1 0.47686 0.511105 0.374944
67 1 0.475666 0.508742 0.381456
68 1 0.474209 0.502055 0.382937
69 1 0.473891 0.499909 0.389666
70 1 0.475169 0.49309 0.390954
71 1 0.475992 0.490938 0.397544
72 1 0.479284 0.484807 0.398734
77 1 0.479676 0.514615 0.36151
78 1 0.475359 0.509089 0.363085
79 1 0.475164 0.506713 0.369693
80 1 0.473787 0.499926 0.371055
81 1 0.473718 0.497385 0.377716
82 1 0.475469 0.490717 0.378984
83 1 0.476731 0.488716 0.385607
91 1 0.474095 0.495102 0.365963
92 1 0.476749 0.488705 0.366832
93 1 0.477792 0.486759 0.373532
105 1 0.479376 0.484727 0.361464
25 1 0.519265 0.516872 0.377564
35 1 0.518133 0.519293 0.365723
55 1 0.482349 0.51827 0.385336
64 1 0.482404 0.518167 0.366719
65 1 0.480694 0.51678 0.373347
84 1 0.480655 0.483037 0.386862
85 1 0.482445 0.481585 0.393522
94 1 0.482627 0.481582 0.375003
114 1 0.517949 0.481148 0.394801
124 1 0.5195 0.483056 0.382742
708 2 0.508072 0.498183 0.377761
711 2 0.490303 0.503241 0.371793
720 2 0.507009 0.494616 0.397186
731 2 0.492655 0.495921 0.386621
732 2 0.49977 0.509882 0.389431
14 1 0.515998 0.520019 0.390887
5 1 0.524913 0.504583 0.393381
6 1 0.522901 0.51121 0.394834
11 1 0.524785 0.506672 0.381617
12 1 0.522259 0.513147 0.382764
13 1 0.520736 0.515067 0.389407
21 1 0.525015 0.499746 0.361488
22 1 0.523769 0.506714 0.362847
23 1 0.523701 0.509142 0.369415
24 1 0.520865 0.515314 0.370883
125 1 0.520848 0.484775 0.389478
126 1 0.52414 0.490735 0.390747
127 1 0.524615 0.49308 0.397286
128 1 0.525195 0.499872 0.398698
132 1 0.520876 0.484559 0.370921
133 1 0.522342 0.486737 0.377473
134 1 0.524989 0.492955 0.378756
135 1 0.525475 0.495293 0.385454
136 1 0.525722 0.502079 0.386973
137 1 0.522689 0.488576 0.365364
138 1 0.524695 0.495187 0.366959
139 1 0.52543 0.497706 0.373646
140 1 0.524738 0.504527 0.374822
15 1 0.514062 0.521172 0.397433
16 1 0.50781 0.524394 0.398807
26 1 0.514277 0.521542 0.378952
27 1 0.512268 0.522715 0.385591
28 1 0.505643 0.525206 0.386882
29 1 0.503387 0.52564 0.393675
30 1 0.496371 0.525264 0.395007
36 1 0.512305 0.52281 0.367099
37 1 0.510276 0.523804 0.373549
38 1 0.503499 0.525705 0.374768
39 1 0.500992 0.525777 0.381582
40 1 0.494229 0.524956 0.382953
41 1 0.491951 0.524351 0.38958
42 1 0.485789 0.521205 0.39078
43 1 0.483876 0.519978 0.397352
49 1 0.507877 0.524106 0.361764
50 1 0.50112 0.525499 0.363041
51 1 0.498971 0.525958 0.369556
52 1 0.492242 0.524467 0.37075
53 1 0.490187 0.523355 0.377427
54 1 0.484209 0.519869 0.378656
63 1 0.488193 0.522128 0.365549
74 1 0.486209 0.479166 0.406897
75 1 0.488218 0.478127 0.413463
76 1 0.494675 0.475521 0.414681
87 1 0.490229 0.476892 0.401437
88 1 0.496882 0.474711 0.402894
89 1 0.499199 0.474539 0.409397
90 1 0.506101 0.474811 0.41083
101 1 0.510567 0.476166 0.405629
102 1 0.516643 0.479722 0.406714
235 1 0.483725 0.479547 0.437628
236 1 0.489766 0.476108 0.438717
246 1 0.484194 0.479806 0.41882
247 1 0.48584 0.478667 0.425576
248 1 0.492056 0.475734 0.42667
249 1 0.494214 0.474924 0.43332
250 1 0.501129 0.474974 0.434754
259 1 0.496834 0.474677 0.421386
260 1 0.50381 0.474422 0.422836
261 1 0.505769 0.475529 0.429502
262 1 0.512322 0.477788 0.430785
263 1 0.51451 0.478647 0.437503
269 1 0.508139 0.475724 0.417503
270 1 0.514405 0.478529 0.418785
271 1 0.516284 0.479973 0.425338
45 1 0.477634 0.51321 0.405324
46 1 0.474786 0.506913 0.406961
47 1 0.474453 0.504426 0.413593
48 1 0.47397 0.497477 0.41488
59 1 0.473911 0.502182 0.401618
60 1 0.474276 0.495264 0.40274
61 1 0.474819 0.492891 0.409425
62 1 0.477893 0.486669 0.410916
206 1 0.477274 0.510811 0.4305
207 1 0.47638 0.508751 0.437251
208 1 0.474342 0.502122 0.438849
217 1 0.479026 0.515301 0.41751
218 1 0.475919 0.508946 0.41886
219 1 0.475509 0.506608 0.42539
220 1 0.474529 0.499779 0.42674
221 1 0.474569 0.497562 0.433417
222 1 0.475933 0.490878 0.435041
231 1 0.474502 0.495206 0.421527
232 1 0.476703 0.488602 0.422705
233 1 0.477708 0.486468 0.42958
245 1 0.479385 0.484817 0.417512
4 1 0.519383 0.517142 0.414738
8 1 0.51748 0.518416 0.402715
34 1 0.480398 0.517015 0.410794
73 1 0.480712 0.483134 0.405463
103 1 0.518228 0.481103 0.413407
115 1 0.519937 0.48285 0.401408
165 1 0.519178 0.516703 0.433351
175 1 0.51785 0.518763 0.421377
204 1 0.482209 0.518573 0.422718
205 1 0.480627 0.516807 0.429385
234 1 0.482115 0.481181 0.430904
264 1 0.519948 0.483051 0.438943
704 2 0.509537 0.497226 0.42989
707 2 0.49091 0.500743 0.42874
713 2 0.508877 0.49605 0.413695
718 2 0.494144 0.506782 0.403911
723 2 0.499715 0.50933 0.418228
726 2 0.492949 0.492829 0.415269
9 1 0.515926 0.520186 0.409371